           55
Energy of minimum  1=     -276.6042885062 first found at step        1
LA        -2.0577235696        0.3955013754        1.3817172373
LA         0.7375856273       -0.3605228669       -2.0369470098
LA         1.7520284207       -1.2989036456       -0.2575818410
LA        -0.0577123899        1.6509135160       -1.4042160909
LA         1.5836513253        0.1325010093        1.4748467742
LA         0.4668943448        1.9552278500        0.7650085792
LA        -0.3268999026       -1.9345280695       -0.8338692391
LA        -1.4417030203       -0.1150041300       -1.5423135856
LA         0.1966604442       -1.6306088558        1.3314840097
LA        -1.6115827343        1.3077449991        0.1940372681
LA        -0.6056185306        0.3771454750        1.9585883973
LA        -1.7772049121       -0.8919944250        0.5427513723
LA         1.8525221520       -0.1933788505       -0.4369705930
LA         1.3395961335        0.2810848589       -1.3366597672
LA         0.9378527375        1.2979809974       -1.0171734913
LA         1.7678854736        0.5301371048        0.4387639717
LA         1.2027422998        1.4518328162        0.0800100347
LA         1.2540114140       -0.8364001506       -1.1560371925
LA         1.6809162990       -0.5879533724        0.6135692741
LA         0.3424010314        0.6502453630       -1.7342374136
LA         1.0331851396        1.0517820687        1.1288813671
LA         0.2059073042        1.8170875721       -0.3222405071
LA         0.2071377186       -1.1560777572       -1.4455254879
LA         0.7176150539       -1.6282804093       -0.5501246859
LA        -0.3550079589       -0.2390867785       -1.8021346740
LA         0.9809883495       -1.4749609364        0.5412782586
LA         0.8967615311       -0.7544972191        1.4128507723
LA        -0.7547082927        0.7732413600       -1.4839414529
LA        -0.8407671127        1.4931572354       -0.6117215307
LA         0.4952759905        0.2571869509        1.7318215342
LA        -0.0655722986       -1.7957278642        0.2504114196
LA        -0.8906371973       -1.0324748859       -1.1968257087
LA        -1.0606848748       -1.4272579415       -0.1480251686
LA        -0.0638036998        1.1743002773        1.3746940318
LA        -0.5751665069        1.6473354106        0.4777105432
LA        -1.5365894757        0.6049679313       -0.6840072169
LA        -0.2001417226       -0.6313485164        1.6602098574
LA        -1.6206922590       -0.5128922043       -0.5065653289
LA        -0.7956541595       -1.2761070895        0.9406091272
LA        -1.1012918185        0.8545239367        1.0785218184
LA        -1.6995658167        0.2061628079        0.3554454781
LA        -1.1859133689       -0.2690154406        1.2564359661
LA         0.0773917265        0.0116143527       -0.0380019343
LA         0.9906572719        0.4619944400       -0.3211325423
LA         0.8989915760       -0.6314432212       -0.1455199186
LA         0.4011069614       -0.1708844200       -1.0188279204
LA         0.0113087328        0.8162025619       -0.7086501488
LA         0.8168819267        0.0709827921        0.7043892201
LA         0.2682647317        0.9655566790        0.3562985975
LA        -0.1220701355       -0.9444479694       -0.4284977029
LA        -0.6698387816       -0.0510051422       -0.7758986604
LA         0.1344694088       -0.7950428692        0.6349081117
LA        -0.7500237297        0.6505358382        0.0710627933
LA        -0.2524435510        0.1902388778        0.9438587663
LA        -0.8316733080       -0.4373414283        0.2434822330
           55
Energy of minimum  2=     -271.7265910743 first found at step        2
LA        -1.0973941144        1.7384602348       -1.6158804718
LA        -1.7662232802        0.8551571595       -1.6806796440
LA         0.4328200960        1.9699810701        0.8291568623
LA         1.5523815392        0.1726496287        1.6016848365
LA         1.7942510957       -1.2852911881       -0.0999175592
LA         0.8236181363       -0.3906515338       -1.9267482785
LA        -0.6455702270        0.3930121884        2.0162740429
LA        -0.0179078404        1.6192929213       -1.3565866532
LA         0.1958346718       -1.6106070486        1.4439381581
LA        -0.2530394817       -1.9581782936       -0.7312430300
LA        -1.7592376554       -0.9273178047        0.5761613547
LA        -1.6239910576        1.2791128325        0.1936370755
LA         1.2091647807        1.4586430668        0.1770539377
LA         0.9794751918        1.2810004698       -0.9359200623
LA        -1.3705381736       -0.1714637892       -1.5036116764
LA         1.7677405612        0.5516151080        0.5668528324
LA         1.3986367119        0.2661650189       -1.2204262636
LA         1.8890621176       -0.1840862953       -0.2952671695
LA        -0.6064776267        1.6362086169        0.5177764849
LA         0.9986879120        1.0780303717        1.2230829034
LA        -0.1082672808        1.1881049369        1.4300616289
LA         1.6851213045       -0.5607308231        0.7562098474
LA         1.3178119314       -0.8442834149       -1.0211663576
LA         0.4061213686        0.6192535955       -1.6536863887
LA        -1.1440636668        0.8425755116        1.1154054242
LA         0.4562354925        0.2857788920        1.8217541471
LA         0.7753044887       -1.6327079884       -0.4191541371
LA         1.0013284672       -1.4574381461        0.6766387508
LA         0.8795610766       -0.7233891757        1.5319415419
LA        -0.2267303229       -0.6127415394        1.7416510117
LA        -0.7876653414       -1.2776158441        1.0169397982
LA         0.2872004445       -1.1816983647       -1.3375365096
LA        -0.0294141152       -1.7971754763        0.3585209343
LA        -1.0138322005       -1.4522253605       -0.0787608172
LA        -1.2109126184       -0.2691184240        1.3049257880
LA        -1.7039896067        0.1769905722        0.3895233742
LA        -0.8186345582       -1.0712237109       -1.1257955473
LA        -0.2768713234       -0.2828925243       -1.7292579904
LA        -1.5775714799       -0.5513407063       -0.4680995540
LA        -0.8347587841        1.4529700882       -0.5835996491
LA        -1.5049129315        0.5568287738       -0.6551462200
LA        -0.6908881066        0.7215605525       -1.4384416794
LA         0.0963172839        0.0106194877        0.0441309516
LA         1.0164585170        0.4611353546       -0.2181236644
LA         0.2604971965        0.9806815566        0.4193034385
LA         0.0430411887        0.8119053420       -0.6363764800
LA        -0.7490799369        0.6301748517        0.1219582338
LA         0.8103249322        0.0910584023        0.8075830015
LA         0.4525316850       -0.1846930253       -0.9228101327
LA         0.9292714527       -0.6261226658       -0.0265843086
LA        -0.2683980807        0.1980341703        1.0120483992
LA         0.1437352628       -0.7864582113        0.7311640525
LA        -0.0761095919       -0.9570111989       -0.3355792116
LA        -0.8154482131       -0.4514155606        0.3057023440
LA        -0.6246072909       -0.0791226611       -0.7146817001
           55
Energy of minimum  3=******************** first found at step        0
LA         0.0000000000        0.0000000000        0.0000000000
LA         0.0000000000        0.0000000000        0.0000000000
LA         0.0000000000        0.0000000000        0.0000000000
LA         0.0000000000        0.0000000000        0.0000000000
LA         0.0000000000        0.0000000000        0.0000000000
LA         0.0000000000        0.0000000000        0.0000000000
LA         0.0000000000        0.0000000000        0.0000000000
LA         0.0000000000        0.0000000000        0.0000000000
LA         0.0000000000        0.0000000000        0.0000000000
LA         0.0000000000        0.0000000000        0.0000000000
LA         0.0000000000        0.0000000000        0.0000000000
LA         0.0000000000        0.0000000000        0.0000000000
LA         0.0000000000        0.0000000000        0.0000000000
LA         0.0000000000        0.0000000000        0.0000000000
LA         0.0000000000        0.0000000000        0.0000000000
LA         0.0000000000        0.0000000000        0.0000000000
LA         0.0000000000        0.0000000000        0.0000000000
LA         0.0000000000        0.0000000000        0.0000000000
LA         0.0000000000        0.0000000000        0.0000000000
LA         0.0000000000        0.0000000000        0.0000000000
LA         0.0000000000        0.0000000000        0.0000000000
LA         0.0000000000        0.0000000000        0.0000000000
LA         0.0000000000        0.0000000000        0.0000000000
LA         0.0000000000        0.0000000000        0.0000000000
LA         0.0000000000        0.0000000000        0.0000000000
LA         0.0000000000        0.0000000000        0.0000000000
LA         0.0000000000        0.0000000000        0.0000000000
LA         0.0000000000        0.0000000000        0.0000000000
LA         0.0000000000        0.0000000000        0.0000000000
LA         0.0000000000        0.0000000000        0.0000000000
LA         0.0000000000        0.0000000000        0.0000000000
LA         0.0000000000        0.0000000000        0.0000000000
LA         0.0000000000        0.0000000000        0.0000000000
LA         0.0000000000        0.0000000000        0.0000000000
LA         0.0000000000        0.0000000000        0.0000000000
LA         0.0000000000        0.0000000000        0.0000000000
LA         0.0000000000        0.0000000000        0.0000000000
LA         0.0000000000        0.0000000000        0.0000000000
LA         0.0000000000        0.0000000000        0.0000000000
LA         0.0000000000        0.0000000000        0.0000000000
LA         0.0000000000        0.0000000000        0.0000000000
LA         0.0000000000        0.0000000000        0.0000000000
LA         0.0000000000        0.0000000000        0.0000000000
LA         0.0000000000        0.0000000000        0.0000000000
LA         0.0000000000        0.0000000000        0.0000000000
LA         0.0000000000        0.0000000000        0.0000000000
LA         0.0000000000        0.0000000000        0.0000000000
LA         0.0000000000        0.0000000000        0.0000000000
LA         0.0000000000        0.0000000000        0.0000000000
LA         0.0000000000        0.0000000000        0.0000000000
LA         0.0000000000        0.0000000000        0.0000000000
LA         0.0000000000        0.0000000000        0.0000000000
LA         0.0000000000        0.0000000000        0.0000000000
LA         0.0000000000        0.0000000000        0.0000000000
LA         0.0000000000        0.0000000000        0.0000000000
           55
Energy of minimum  4=******************** first found at step        0
LA         0.0000000000        0.0000000000        0.0000000000
LA         0.0000000000        0.0000000000        0.0000000000
LA         0.0000000000        0.0000000000        0.0000000000
LA         0.0000000000        0.0000000000        0.0000000000
LA         0.0000000000        0.0000000000        0.0000000000
LA         0.0000000000        0.0000000000        0.0000000000
LA         0.0000000000        0.0000000000        0.0000000000
LA         0.0000000000        0.0000000000        0.0000000000
LA         0.0000000000        0.0000000000        0.0000000000
LA         0.0000000000        0.0000000000        0.0000000000
LA         0.0000000000        0.0000000000        0.0000000000
LA         0.0000000000        0.0000000000        0.0000000000
LA         0.0000000000        0.0000000000        0.0000000000
LA         0.0000000000        0.0000000000        0.0000000000
LA         0.0000000000        0.0000000000        0.0000000000
LA         0.0000000000        0.0000000000        0.0000000000
LA         0.0000000000        0.0000000000        0.0000000000
LA         0.0000000000        0.0000000000        0.0000000000
LA         0.0000000000        0.0000000000        0.0000000000
LA         0.0000000000        0.0000000000        0.0000000000
LA         0.0000000000        0.0000000000        0.0000000000
LA         0.0000000000        0.0000000000        0.0000000000
LA         0.0000000000        0.0000000000        0.0000000000
LA         0.0000000000        0.0000000000        0.0000000000
LA         0.0000000000        0.0000000000        0.0000000000
LA         0.0000000000        0.0000000000        0.0000000000
LA         0.0000000000        0.0000000000        0.0000000000
LA         0.0000000000        0.0000000000        0.0000000000
LA         0.0000000000        0.0000000000        0.0000000000
LA         0.0000000000        0.0000000000        0.0000000000
LA         0.0000000000        0.0000000000        0.0000000000
LA         0.0000000000        0.0000000000        0.0000000000
LA         0.0000000000        0.0000000000        0.0000000000
LA         0.0000000000        0.0000000000        0.0000000000
LA         0.0000000000        0.0000000000        0.0000000000
LA         0.0000000000        0.0000000000        0.0000000000
LA         0.0000000000        0.0000000000        0.0000000000
LA         0.0000000000        0.0000000000        0.0000000000
LA         0.0000000000        0.0000000000        0.0000000000
LA         0.0000000000        0.0000000000        0.0000000000
LA         0.0000000000        0.0000000000        0.0000000000
LA         0.0000000000        0.0000000000        0.0000000000
LA         0.0000000000        0.0000000000        0.0000000000
LA         0.0000000000        0.0000000000        0.0000000000
LA         0.0000000000        0.0000000000        0.0000000000
LA         0.0000000000        0.0000000000        0.0000000000
LA         0.0000000000        0.0000000000        0.0000000000
LA         0.0000000000        0.0000000000        0.0000000000
LA         0.0000000000        0.0000000000        0.0000000000
LA         0.0000000000        0.0000000000        0.0000000000
LA         0.0000000000        0.0000000000        0.0000000000
LA         0.0000000000        0.0000000000        0.0000000000
LA         0.0000000000        0.0000000000        0.0000000000
LA         0.0000000000        0.0000000000        0.0000000000
LA         0.0000000000        0.0000000000        0.0000000000
           55
Energy of minimum  5=******************** first found at step        0
LA         0.0000000000        0.0000000000        0.0000000000
LA         0.0000000000        0.0000000000        0.0000000000
LA         0.0000000000        0.0000000000        0.0000000000
LA         0.0000000000        0.0000000000        0.0000000000
LA         0.0000000000        0.0000000000        0.0000000000
LA         0.0000000000        0.0000000000        0.0000000000
LA         0.0000000000        0.0000000000        0.0000000000
LA         0.0000000000        0.0000000000        0.0000000000
LA         0.0000000000        0.0000000000        0.0000000000
LA         0.0000000000        0.0000000000        0.0000000000
LA         0.0000000000        0.0000000000        0.0000000000
LA         0.0000000000        0.0000000000        0.0000000000
LA         0.0000000000        0.0000000000        0.0000000000
LA         0.0000000000        0.0000000000        0.0000000000
LA         0.0000000000        0.0000000000        0.0000000000
LA         0.0000000000        0.0000000000        0.0000000000
LA         0.0000000000        0.0000000000        0.0000000000
LA         0.0000000000        0.0000000000        0.0000000000
LA         0.0000000000        0.0000000000        0.0000000000
LA         0.0000000000        0.0000000000        0.0000000000
LA         0.0000000000        0.0000000000        0.0000000000
LA         0.0000000000        0.0000000000        0.0000000000
LA         0.0000000000        0.0000000000        0.0000000000
LA         0.0000000000        0.0000000000        0.0000000000
LA         0.0000000000        0.0000000000        0.0000000000
LA         0.0000000000        0.0000000000        0.0000000000
LA         0.0000000000        0.0000000000        0.0000000000
LA         0.0000000000        0.0000000000        0.0000000000
LA         0.0000000000        0.0000000000        0.0000000000
LA         0.0000000000        0.0000000000        0.0000000000
LA         0.0000000000        0.0000000000        0.0000000000
LA         0.0000000000        0.0000000000        0.0000000000
LA         0.0000000000        0.0000000000        0.0000000000
LA         0.0000000000        0.0000000000        0.0000000000
LA         0.0000000000        0.0000000000        0.0000000000
LA         0.0000000000        0.0000000000        0.0000000000
LA         0.0000000000        0.0000000000        0.0000000000
LA         0.0000000000        0.0000000000        0.0000000000
LA         0.0000000000        0.0000000000        0.0000000000
LA         0.0000000000        0.0000000000        0.0000000000
LA         0.0000000000        0.0000000000        0.0000000000
LA         0.0000000000        0.0000000000        0.0000000000
LA         0.0000000000        0.0000000000        0.0000000000
LA         0.0000000000        0.0000000000        0.0000000000
LA         0.0000000000        0.0000000000        0.0000000000
LA         0.0000000000        0.0000000000        0.0000000000
LA         0.0000000000        0.0000000000        0.0000000000
LA         0.0000000000        0.0000000000        0.0000000000
LA         0.0000000000        0.0000000000        0.0000000000
LA         0.0000000000        0.0000000000        0.0000000000
LA         0.0000000000        0.0000000000        0.0000000000
LA         0.0000000000        0.0000000000        0.0000000000
LA         0.0000000000        0.0000000000        0.0000000000
LA         0.0000000000        0.0000000000        0.0000000000
LA         0.0000000000        0.0000000000        0.0000000000
