 38
Energy of minimum  1=        2.7302678944 first found at step        1
LA        -0.1010553061        1.7137490647       -0.3383021563
LA        -0.7947862140       -0.8644332143        1.2970638906
LA         0.3407008047        1.1920335385        0.5323822770
LA         1.6826195483       -0.1680294642        0.4487082724
LA        -0.0043782628       -0.0909792983        1.3462468387
LA        -1.5137413255        0.7227662853        0.4974815101
LA        -0.3407901074       -1.1919015443       -0.5324551203
LA         1.5137569489       -0.7228439802       -0.4975665175
LA         0.1011129762       -1.7136810456        0.3379868684
LA         0.7945865524        0.8645165624       -1.2969101240
LA        -1.0620031483        0.3876630074       -1.3351899784
LA         0.0043849860        0.0909611651       -1.3461048310
LA        -0.7881787590       -0.6798079176       -1.4062006652
LA        -1.6825902333        0.1680617725       -0.4485703148
LA        -0.9624981879       -1.4169829920        0.3556127659
LA         0.7244575766       -1.4932217257       -0.5531188146
LA         1.2336015682        0.3454875944       -0.4233452902
LA        -0.7245212920        1.4932682158        0.5530262164
LA         0.9625047188        1.4168976432       -0.3556104454
LA         0.7883596128        0.6797237596        1.4060172035
LA         1.0702725720       -0.2080649134       -1.3682000123
LA        -1.0701683623        0.2082885955        1.3681590754
LA         1.0619296395       -0.3879557786        1.3353513802
LA        -1.2336112865       -0.3456212429        0.4234193963
LA        -1.4082840020       -0.8993515317       -0.5190745178
LA         0.2686063745       -1.1620255792        1.2799176174
LA         0.2806048971       -0.9780931162       -1.4231855239
LA         1.4082459129        0.8994435313        0.5188933371
LA        -0.2803738039        0.9782903928        1.4232530929
LA        -0.2688518361        1.1618552234       -1.2800441065
LA         0.8884958971       -0.9373991316        0.3903270899
LA        -0.8884113916        0.9374161685       -0.3902917331
LA        -0.1718770687       -0.6389925478        0.4053284495
LA         0.6122343604        0.1268007784        0.4596463665
LA        -0.4446932595        0.4215472062        0.4761215464
LA         0.1718653573        0.6389939042       -0.4052216252
LA         0.4446959322       -0.4215526398       -0.4760051359
LA        -0.6122223892       -0.1268267459       -0.4595462822
 38
Energy of minimum  2=******************** first found at step        0
LA         0.0000000000        0.0000000000        0.0000000000
LA         0.0000000000        0.0000000000        0.0000000000
LA         0.0000000000        0.0000000000        0.0000000000
LA         0.0000000000        0.0000000000        0.0000000000
LA         0.0000000000        0.0000000000        0.0000000000
LA         0.0000000000        0.0000000000        0.0000000000
LA         0.0000000000        0.0000000000        0.0000000000
LA         0.0000000000        0.0000000000        0.0000000000
LA         0.0000000000        0.0000000000        0.0000000000
LA         0.0000000000        0.0000000000        0.0000000000
LA         0.0000000000        0.0000000000        0.0000000000
LA         0.0000000000        0.0000000000        0.0000000000
LA         0.0000000000        0.0000000000        0.0000000000
LA         0.0000000000        0.0000000000        0.0000000000
LA         0.0000000000        0.0000000000        0.0000000000
LA         0.0000000000        0.0000000000        0.0000000000
LA         0.0000000000        0.0000000000        0.0000000000
LA         0.0000000000        0.0000000000        0.0000000000
LA         0.0000000000        0.0000000000        0.0000000000
LA         0.0000000000        0.0000000000        0.0000000000
LA         0.0000000000        0.0000000000        0.0000000000
LA         0.0000000000        0.0000000000        0.0000000000
LA         0.0000000000        0.0000000000        0.0000000000
LA         0.0000000000        0.0000000000        0.0000000000
LA         0.0000000000        0.0000000000        0.0000000000
LA         0.0000000000        0.0000000000        0.0000000000
LA         0.0000000000        0.0000000000        0.0000000000
LA         0.0000000000        0.0000000000        0.0000000000
LA         0.0000000000        0.0000000000        0.0000000000
LA         0.0000000000        0.0000000000        0.0000000000
LA         0.0000000000        0.0000000000        0.0000000000
LA         0.0000000000        0.0000000000        0.0000000000
LA         0.0000000000        0.0000000000        0.0000000000
LA         0.0000000000        0.0000000000        0.0000000000
LA         0.0000000000        0.0000000000        0.0000000000
LA         0.0000000000        0.0000000000        0.0000000000
LA         0.0000000000        0.0000000000        0.0000000000
LA         0.0000000000        0.0000000000        0.0000000000
 38
Energy of minimum  3=******************** first found at step        0
LA         0.0000000000        0.0000000000        0.0000000000
LA         0.0000000000        0.0000000000        0.0000000000
LA         0.0000000000        0.0000000000        0.0000000000
LA         0.0000000000        0.0000000000        0.0000000000
LA         0.0000000000        0.0000000000        0.0000000000
LA         0.0000000000        0.0000000000        0.0000000000
LA         0.0000000000        0.0000000000        0.0000000000
LA         0.0000000000        0.0000000000        0.0000000000
LA         0.0000000000        0.0000000000        0.0000000000
LA         0.0000000000        0.0000000000        0.0000000000
LA         0.0000000000        0.0000000000        0.0000000000
LA         0.0000000000        0.0000000000        0.0000000000
LA         0.0000000000        0.0000000000        0.0000000000
LA         0.0000000000        0.0000000000        0.0000000000
LA         0.0000000000        0.0000000000        0.0000000000
LA         0.0000000000        0.0000000000        0.0000000000
LA         0.0000000000        0.0000000000        0.0000000000
LA         0.0000000000        0.0000000000        0.0000000000
LA         0.0000000000        0.0000000000        0.0000000000
LA         0.0000000000        0.0000000000        0.0000000000
LA         0.0000000000        0.0000000000        0.0000000000
LA         0.0000000000        0.0000000000        0.0000000000
LA         0.0000000000        0.0000000000        0.0000000000
LA         0.0000000000        0.0000000000        0.0000000000
LA         0.0000000000        0.0000000000        0.0000000000
LA         0.0000000000        0.0000000000        0.0000000000
LA         0.0000000000        0.0000000000        0.0000000000
LA         0.0000000000        0.0000000000        0.0000000000
LA         0.0000000000        0.0000000000        0.0000000000
LA         0.0000000000        0.0000000000        0.0000000000
LA         0.0000000000        0.0000000000        0.0000000000
LA         0.0000000000        0.0000000000        0.0000000000
LA         0.0000000000        0.0000000000        0.0000000000
LA         0.0000000000        0.0000000000        0.0000000000
LA         0.0000000000        0.0000000000        0.0000000000
LA         0.0000000000        0.0000000000        0.0000000000
LA         0.0000000000        0.0000000000        0.0000000000
LA         0.0000000000        0.0000000000        0.0000000000
 38
Energy of minimum  4=******************** first found at step        0
LA         0.0000000000        0.0000000000        0.0000000000
LA         0.0000000000        0.0000000000        0.0000000000
LA         0.0000000000        0.0000000000        0.0000000000
LA         0.0000000000        0.0000000000        0.0000000000
LA         0.0000000000        0.0000000000        0.0000000000
LA         0.0000000000        0.0000000000        0.0000000000
LA         0.0000000000        0.0000000000        0.0000000000
LA         0.0000000000        0.0000000000        0.0000000000
LA         0.0000000000        0.0000000000        0.0000000000
LA         0.0000000000        0.0000000000        0.0000000000
LA         0.0000000000        0.0000000000        0.0000000000
LA         0.0000000000        0.0000000000        0.0000000000
LA         0.0000000000        0.0000000000        0.0000000000
LA         0.0000000000        0.0000000000        0.0000000000
LA         0.0000000000        0.0000000000        0.0000000000
LA         0.0000000000        0.0000000000        0.0000000000
LA         0.0000000000        0.0000000000        0.0000000000
LA         0.0000000000        0.0000000000        0.0000000000
LA         0.0000000000        0.0000000000        0.0000000000
LA         0.0000000000        0.0000000000        0.0000000000
LA         0.0000000000        0.0000000000        0.0000000000
LA         0.0000000000        0.0000000000        0.0000000000
LA         0.0000000000        0.0000000000        0.0000000000
LA         0.0000000000        0.0000000000        0.0000000000
LA         0.0000000000        0.0000000000        0.0000000000
LA         0.0000000000        0.0000000000        0.0000000000
LA         0.0000000000        0.0000000000        0.0000000000
LA         0.0000000000        0.0000000000        0.0000000000
LA         0.0000000000        0.0000000000        0.0000000000
LA         0.0000000000        0.0000000000        0.0000000000
LA         0.0000000000        0.0000000000        0.0000000000
LA         0.0000000000        0.0000000000        0.0000000000
LA         0.0000000000        0.0000000000        0.0000000000
LA         0.0000000000        0.0000000000        0.0000000000
LA         0.0000000000        0.0000000000        0.0000000000
LA         0.0000000000        0.0000000000        0.0000000000
LA         0.0000000000        0.0000000000        0.0000000000
LA         0.0000000000        0.0000000000        0.0000000000
 38
Energy of minimum  5=******************** first found at step        0
LA         0.0000000000        0.0000000000        0.0000000000
LA         0.0000000000        0.0000000000        0.0000000000
LA         0.0000000000        0.0000000000        0.0000000000
LA         0.0000000000        0.0000000000        0.0000000000
LA         0.0000000000        0.0000000000        0.0000000000
LA         0.0000000000        0.0000000000        0.0000000000
LA         0.0000000000        0.0000000000        0.0000000000
LA         0.0000000000        0.0000000000        0.0000000000
LA         0.0000000000        0.0000000000        0.0000000000
LA         0.0000000000        0.0000000000        0.0000000000
LA         0.0000000000        0.0000000000        0.0000000000
LA         0.0000000000        0.0000000000        0.0000000000
LA         0.0000000000        0.0000000000        0.0000000000
LA         0.0000000000        0.0000000000        0.0000000000
LA         0.0000000000        0.0000000000        0.0000000000
LA         0.0000000000        0.0000000000        0.0000000000
LA         0.0000000000        0.0000000000        0.0000000000
LA         0.0000000000        0.0000000000        0.0000000000
LA         0.0000000000        0.0000000000        0.0000000000
LA         0.0000000000        0.0000000000        0.0000000000
LA         0.0000000000        0.0000000000        0.0000000000
LA         0.0000000000        0.0000000000        0.0000000000
LA         0.0000000000        0.0000000000        0.0000000000
LA         0.0000000000        0.0000000000        0.0000000000
LA         0.0000000000        0.0000000000        0.0000000000
LA         0.0000000000        0.0000000000        0.0000000000
LA         0.0000000000        0.0000000000        0.0000000000
LA         0.0000000000        0.0000000000        0.0000000000
LA         0.0000000000        0.0000000000        0.0000000000
LA         0.0000000000        0.0000000000        0.0000000000
LA         0.0000000000        0.0000000000        0.0000000000
LA         0.0000000000        0.0000000000        0.0000000000
LA         0.0000000000        0.0000000000        0.0000000000
LA         0.0000000000        0.0000000000        0.0000000000
LA         0.0000000000        0.0000000000        0.0000000000
LA         0.0000000000        0.0000000000        0.0000000000
LA         0.0000000000        0.0000000000        0.0000000000
LA         0.0000000000        0.0000000000        0.0000000000
