           56
Energy of minimum  1=      -15.5947816364 first found at step        1
LL         2.8086121331        1.9824706958        1.2353275080
BL         1.9891164626        1.4335695762        1.0473304840
LL         2.2130410411        0.9408892370        0.2219139284
BL         1.3702094405        0.4287849592        0.1223233072
LL         1.5591641384       -0.0997454629       -0.7064261598
BL         0.7394570261       -0.6527594714       -0.8209859216
LL         0.8925690302       -1.1820506239       -1.6598297951
BL         0.0229257000       -1.6499687098       -1.6164562309
BL        -0.1717701332       -2.2744080722       -2.3614619052
NL        -0.1505438746       -1.7690760751       -3.2222518837
NL        -0.5552093801       -2.4404073906       -3.8413464194
NL        -1.5041719284       -2.5374267137       -3.5105074826
LL        -1.4969615925       -2.5189529949       -2.5030959858
BL        -1.0876770967       -1.6259033308       -2.2767918444
BL        -0.9722189971       -1.4062907285       -1.3117377957
LL        -0.5330399625       -0.4996522643       -1.3963451662
BL        -0.2902432880       -0.2832871364       -0.4537826421
LL         0.1820542544        0.6020070329       -0.4772061706
BL         0.3660552067        0.7304151728        0.5017487879
BL         0.9182305052        1.5528021441        0.5969410252
BL         1.0765249348        1.7637048249        1.5606806424
NL         1.5793675075        2.6358453410        1.5890973539
NL         0.9461637235        3.1707118564        1.0471525692
NL         0.1006758961        3.0421210741        1.5568357180
LL        -0.5708598956        3.2799950563        0.8692895380
LL        -0.2546338742        2.6325088504        0.1690605040
BL        -0.2265943630        1.7226089124        0.6091949977
LL        -1.1842624128        1.5646113574        0.8691616381
LL        -1.6729355362        1.6219011085       -0.0024091783
LL        -1.2246527950        0.9289610159       -0.5682138533
BL        -1.3750227267        0.0494681524       -0.1056574213
LL        -2.3779438392       -0.0197101710       -0.1491179774
LL        -2.4556813300        0.0253280675       -1.1409665464
BL        -1.8782333813       -0.7579364336       -1.3508351757
NL        -2.4251464343       -1.5424676039       -1.0927590494
BL        -1.7242924575       -2.2287196220       -1.1972797916
BL        -1.1393238020       -2.0424700781       -0.4108621949
BL        -1.1039043982       -1.0555556616       -0.2758189611
LL        -0.6180043002       -0.9616264236        0.5914485883
BL        -0.4879361396        0.0255969533        0.6069071108
BL         0.0585606755        0.1933389803        1.4161421703
BL         0.1646598953        1.1762512481        1.5084592389
BL         0.6588220309        1.1083432829        2.3714871430
NL         0.9105437194        1.9892369701        2.7948546104
NL         1.3486436992        1.7632136306        3.6780465710
NL         2.0403434854        1.0458721873        3.5308494182
LL         1.5846362146        0.4582350215        2.8709602815
BL         1.7254340200        0.9982761795        2.0381886198
BL         1.1203124645        0.6717245387        1.3169295835
LL         1.2809284116       -0.2950176635        1.1648610545
BL         0.5893139245       -0.3887487077        0.4469934996
LL         0.6287346182       -1.3656189192        0.2392007997
BL        -0.0531179869       -1.4785541660       -0.4872511966
LL         0.0196066696       -2.4602502512       -0.6536611740
BL        -0.6658611656       -2.5125813011       -1.3711794404
LL        -0.6944637378       -3.4896074509       -1.6071493278
           56
Energy of minimum  2=       -9.2417979497 first found at step       13
LL         3.0306705507        1.7033351312        1.3066190511
BL         2.1773150949        1.2105552043        1.1146842992
LL         2.3648939156        0.7126493594        0.2811410433
BL         1.4895614794        0.2578692913        0.1791866448
LL         1.6165350499       -0.2643932220       -0.6649830764
BL         0.7479365529       -0.7416105871       -0.7590441298
LL         0.8008728256       -1.2478354010       -1.6223124248
BL        -0.1097443458       -1.6209200737       -1.5326642929
BL        -0.4304660530       -2.1722179924       -2.2962090813
NL        -0.4034717945       -1.6305225594       -3.1371723734
NL        -0.8910981734       -2.2218800875       -3.7825530939
NL        -1.8370385762       -2.2760004745       -3.4332397630
LL        -1.7832421253       -2.3244359265       -2.4313200434
BL        -1.3130764540       -1.4676598927       -2.1949798093
BL        -1.0973916111       -1.3330245953       -1.2352098773
LL        -0.5893604330       -0.4580472283       -1.3124339767
BL        -0.2368467996       -0.2931226580       -0.3928832937
LL         0.2970978484        0.5566414664       -0.4327246568
BL         0.5266754239        0.6749138742        0.5399051756
BL         1.1460742369        1.4520200345        0.6242357415
BL         1.3002812387        1.6745877771        1.5861398786
NL         1.8511008139        2.5156514631        1.6156431840
NL         1.2763122169        3.0790968448        1.0353100278
NL         0.3808511367        3.0329783936        1.4747869579
LL        -0.1873012576        3.2978061823        0.7051137507
LL         0.1947979031        2.6030460898        0.0902095758
BL         0.0525101712        1.7151852865        0.5501118113
LL        -0.9370315248        1.5755688113        0.4888901056
LL        -1.0366638761        1.5570228785       -0.5068204459
LL        -1.9514260543        1.2378646277       -0.7396193046
BL        -2.0685725067        0.3582551043       -0.2700631698
LL        -2.9606025814        0.0700720962       -0.6148100911
LL        -2.7153802470       -0.0144336545       -1.5807228192
BL        -2.0044281071       -0.7184032798       -1.5250025876
NL        -2.5376790074       -1.4937272065       -1.2142074029
BL        -1.8314392450       -2.1743224846       -1.1072771039
BL        -1.2830034707       -1.9446654914       -0.3009368859
BL        -1.1354906197       -0.9635166093       -0.2083881283
LL        -0.6680819554       -0.8768847210        0.6691244097
BL        -0.4160164039        0.0867642557        0.6456164799
BL         0.1181866202        0.2290534610        1.4658563902
BL         0.3296291063        1.1968953973        1.5139825329
BL         0.7795626201        1.1079564003        2.4002217947
NL         1.1161559025        1.9699849188        2.8031556880
NL         1.4907130733        1.7310132629        3.7119757913
NL         2.1052811787        0.9379948982        3.6206452879
LL         1.6135584008        0.3759335788        2.9644587398
BL         1.8404253294        0.8665714864        2.1207403091
BL         1.2280940848        0.5774622014        1.3901341872
LL         1.2969523371       -0.4038760952        1.2655228506
BL         0.6150905605       -0.4478399889        0.5339715259
LL         0.5642789264       -1.4243381916        0.3386876077
BL        -0.1159813273       -1.4779099474       -0.3945865381
LL        -0.1207974941       -2.4619328837       -0.5528689068
BL        -0.7969151112       -2.4700477654       -1.2765142866
LL        -0.8928674430       -3.4411807599       -1.5165232788
           56
Energy of minimum  3=       -7.4881444465 first found at step        3
LL         2.8007475353        2.0036872601        1.2893075478
BL         1.9954210886        1.4406353197        1.0833529111
LL         2.2468682226        0.9469457540        0.2653636089
BL         1.4147717575        0.4217378887        0.1430033804
LL         1.6267481851       -0.1073295872       -0.6801166296
BL         0.8084840677       -0.6593413647       -0.8085098578
LL         0.9653649929       -1.1954553010       -1.6423598652
BL         0.0866752311       -1.6484348537       -1.6072521404
BL        -0.1126043698       -2.2725059527       -2.3500580107
NL        -0.0486946594       -1.7745728410       -3.2132566833
NL        -0.4580014419       -2.4355419428       -3.8398180343
NL        -1.4171867164       -2.4984460608       -3.5324195258
LL        -1.4324805242       -2.4674302927       -2.5254427251
BL        -1.0035276831       -1.5825301966       -2.2961685815
BL        -0.8967081346       -1.3368707003       -1.3318294838
LL        -0.4487533531       -0.4426466399       -1.4130124354
BL        -0.2054245543       -0.2601477330       -0.4638370437
LL         0.2409925279        0.6358085059       -0.4678255726
BL         0.4085595038        0.7390954029        0.5142006034
BL         0.9214196443        1.5824560843        0.6319255605
BL         1.0884781435        1.7744096286        1.5971154750
NL         1.5509161858        2.6668978108        1.6359083220
NL         0.8842256122        3.1827549354        1.1153695239
NL         0.0484412137        3.0022005983        1.6265691856
LL        -0.6373145286        3.2446764819        0.9540516345
LL        -0.3067962497        2.6400381833        0.2230094261
BL        -0.2608434293        1.7079175056        0.6114681623
LL        -1.2206906442        1.5077078450        0.8460006665
LL        -1.7222798313        1.6024034858       -0.0196479607
LL        -1.1981924502        1.0035804115       -0.6216209106
BL        -1.2364594844        0.0987218866       -0.1940256685
LL        -2.1695860048       -0.2421002980       -0.3223197824
LL        -2.2012506255       -0.2987699353       -1.3215643611
BL        -2.9244412456       -0.9439000948       -1.5475183119
NL        -2.6765667480       -1.7566741312       -1.0202517093
BL        -1.7538092336       -2.0143177143       -1.3186024750
BL        -1.2120040465       -1.9802972745       -0.4749978563
BL        -1.0491254617       -1.0171785482       -0.2807587757
LL        -0.6012946409       -0.9622016374        0.6061647745
BL        -0.4365592917        0.0216290249        0.6019568418
BL         0.0762693816        0.2043604309        1.4278564296
BL         0.1818478959        1.1879120402        1.5096260612
BL         0.6473082036        1.1188165694        2.3891564806
NL         0.8914479589        1.9973463827        2.8220626529
NL         1.3025954130        1.7649568703        3.7161495896
NL         1.9963860812        1.0470747940        3.5824801706
LL         1.5575091070        0.4645337794        2.9065855344
BL         1.7258083954        1.0041660543        2.0783187019
BL         1.1408417986        0.6804367336        1.3398061239
LL         1.2966156646       -0.2901649379        1.1942125636
BL         0.6296435423       -0.3840513509        0.4523239789
LL         0.6427774561       -1.3648591143        0.2558056263
BL        -0.0218990196       -1.4492033785       -0.4905603085
LL        -0.0301466999       -2.4353111778       -0.6476317109
BL        -0.6989561574       -2.4473121595       -1.3869525769
LL        -0.7955675803       -3.4253124487       -1.6007925409
           56
Energy of minimum  4=       -6.4087971932 first found at step       19
LL         3.0368010653        2.0137211022        0.9359612640
BL         2.1960513459        1.4685821387        0.8819149922
LL         2.3532151389        0.8336953477        0.1322002290
BL         1.4912616530        0.3324391540        0.1323312889
LL         1.6041911676       -0.3126530609       -0.6206828280
BL         0.7335747413       -0.7960798532       -0.6212026198
LL         0.7906188725       -1.4124865712       -1.4100775526
BL        -0.1260523564       -1.7666045578       -1.3091613203
BL        -0.4164003442       -2.3934181591       -2.0240340534
NL        -0.2236048804       -1.9910502528       -2.9210017090
NL        -0.6805847820       -2.6283191142       -3.5449010084
NL        -1.6630854670       -2.5541208739       -3.3279418208
LL        -1.7311214974       -2.4431791760       -2.3327190334
BL        -1.2158366495       -1.5941646618       -2.1706170474
BL        -1.0966543228       -1.3215586549       -1.2217480445
LL        -0.5196401746       -0.4943647413       -1.3450622966
BL        -0.2457427467       -0.2423020693       -0.4150413062
LL         0.3022692989        0.5978279384       -0.4776303249
BL         0.5220329526        0.7713139282        0.4930215071
BL         1.0971008404        1.5811413133        0.5035930595
BL         1.3203343740        1.8556610757        1.4378264809
NL         1.7312990501        2.7536706935        1.2856009248
NL         0.9641333007        3.0805374611        0.7453284305
NL         0.1906894536        2.9802832251        1.3703506186
LL        -0.5855733075        2.9932239603        0.7486022405
LL        -0.4213925420        2.1454105643        0.2270681574
BL        -0.4799959151        1.3876420232        0.8988927836
LL        -1.4355266231        1.5295005185        1.2068474557
LL        -1.8966681927        1.3843261920        0.3328633399
LL        -1.6591679969        0.4247090510        0.2272972645
BL        -1.7190256693        0.1523154066       -0.7259999304
LL        -2.6237535850        0.3440942253       -1.1014910240
LL        -2.3432919904        0.1343396659       -2.0306003928
BL        -1.8479799613       -0.6966768881       -1.7857252690
NL        -2.5516717232       -1.2896006853       -1.4258770305
BL        -1.9810195464       -2.0306118460       -1.1077246046
BL        -1.5090838436       -1.7496499752       -0.2675535924
BL        -1.2243347224       -0.7941648849       -0.2730689993
LL        -0.8297994622       -0.6659768310        0.6388956674
BL        -0.4467931329        0.2558709729        0.5777332997
BL         0.0543639582        0.3472512682        1.4208473297
BL         0.4393707846        1.2516781440        1.4996251651
BL         0.9393243978        1.0762933777        2.3436255928
NL         1.4236560354        1.8760081871        2.7333614488
NL         2.0251122992        1.4778752869        3.4432633012
NL         2.9179975779        1.2330909534        3.0180667966
LL         2.7306107351        0.6187646978        2.2442866664
BL         1.9262933526        1.0994971673        1.9341828194
BL         1.4055505083        0.7323279628        1.1742786829
LL         1.1642336817       -0.2165730013        1.3542103712
BL         0.5887986580       -0.3419518006        0.5418031736
LL         0.3445723565       -1.3080400405        0.5704665464
BL        -0.2298790708       -1.4123115580       -0.2436460073
LL        -0.4101991685       -2.3935412384       -0.2167069571
BL        -0.9697266254       -2.4549197562       -1.0355354181
LL        -1.2098513002       -3.4287727509       -1.0985967075
           56
Energy of minimum  5=       -6.3517285317 first found at step        6
LL         2.8902774631        1.5592674588        1.2015948313
BL         1.9743144498        1.2524080081        0.9273096034
LL         2.1405262044        0.5980407698        0.1909998688
BL         1.1784233823        0.4456968274        0.0510100922
LL         0.9544475941       -0.2244528385       -0.6685905938
BL         1.2649620919        0.0151102353       -1.5833055073
LL         0.6305008439       -0.5382601331       -2.1345429519
BL         0.6651541362       -1.4577807178       -1.7438897051
BL        -0.0152522941       -2.0374027505       -2.2074972994
NL         0.1432393003       -1.9537109237       -3.1944367807
NL        -0.4413774041       -2.6300912739       -3.6610635126
NL        -1.4215181396       -2.4752468378       -3.4943231333
LL        -1.5448020666       -2.4313063246       -2.5044977694
BL        -1.0400222823       -1.6000206854       -2.2732312820
BL        -0.9928670031       -1.3904874247       -1.3014434120
LL        -0.5553569820       -0.4906063023       -1.3464593582
BL        -0.4252685056       -0.2612889457       -0.3888411298
LL         0.0365526943        0.6224441241       -0.4127306038
BL         0.2549969008        0.7287908524        0.5590893613
BL         0.8684752517        1.5059463642        0.5958654524
BL         1.1182935372        1.7014505463        1.5369309159
NL         1.6724237959        2.5402902275        1.5144432310
NL         1.0149782349        3.1088556119        1.0373257723
NL         0.2156080696        3.0200958969        1.6267754911
LL        -0.5106082327        3.2956388728        1.0108951754
LL        -0.2913955286        2.6400803462        0.2826517328
BL        -0.2724521183        1.7253372642        0.7124162149
LL        -1.2189331330        1.5765090761        1.0199062155
LL        -1.7493698950        1.6376174285        0.1717103036
LL        -1.3320673531        0.9444577455       -0.4192611066
BL        -1.4767743138        0.0477005262        0.0147493311
LL        -2.4755836215       -0.0362197181       -0.0411392874
LL        -2.5131472010        0.0313766110       -1.0329064758
BL        -1.9156521978       -0.7391345114       -1.2451063469
NL        -2.4709449218       -1.5351710047       -1.0464379410
BL        -1.7683756984       -2.2107349040       -1.1911015805
BL        -1.1803686618       -2.0441324035       -0.4087831282
BL        -1.2003439722       -1.0608552948       -0.2393016923
LL        -0.6938964008       -0.9785992730        0.6244869139
BL        -0.5760741614        0.0119636864        0.6923006068
BL         0.0233562718        0.1666658200        1.4733782945
BL         0.1630980413        1.1517250462        1.5795976312
BL         0.7313889215        1.0636475352        2.3933827236
NL         1.0432681332        1.9360620799        2.7922995681
NL         1.5529122268        1.6980838776        3.6338037662
NL         2.2202455425        0.9706922447        3.4300948707
LL         1.7005384317        0.3849485102        2.8178552489
BL         1.7613210287        0.9323858842        1.9817819438
BL         1.0807418290        0.6162706863        1.3257059210
LL         1.2538703531       -0.3336073827        1.1323269947
BL         0.4814044273       -0.3979470123        0.5101166200
LL         0.5699373715       -1.3396907822        0.1834157081
BL        -0.1600817587       -1.4632375114       -0.4896547665
LL         0.0065710253       -2.4018244366       -0.7741503103
BL        -0.7204732078       -2.4767450065       -1.4424503955
LL        -0.6488204991       -3.4210057645       -1.7790743345
           56
Energy of minimum  6=       -6.0586819350 first found at step       17
LL         3.0614694421        1.8430698251        1.0198684697
BL         2.2091578667        1.3207449492        0.9253093002
LL         2.3525482364        0.7655685450        0.1256124052
BL         1.4797089107        0.3003280464        0.1428377332
LL         1.5552273775       -0.2771263561       -0.6678802444
BL         0.6839696233       -0.7484723896       -0.6445529214
LL         0.6377199514       -1.2854342644       -1.4855834039
BL        -0.2806414724       -1.5951084308       -1.2926613204
BL        -0.6982717265       -2.1101470754       -2.0447466737
NL        -0.3625826053       -1.7752568859       -2.9361588195
NL        -0.8292293542       -2.3261464635       -3.6455737910
NL        -1.8258807310       -2.1728023747       -3.5881244571
LL        -1.9782368422       -2.1058547024       -2.6081014687
BL        -1.4239262787       -1.2950957806       -2.4315748413
BL        -1.2739948312       -1.2085801032       -1.4657106436
LL        -0.6722301276       -0.4121506471       -1.3878127581
BL        -0.3879063198       -0.4017874302       -0.4245741058
LL         0.1763465781        0.4345712921       -0.4285278615
BL         0.4680084805        0.5812526548        0.5189621184
BL         1.0553132015        1.3867639785        0.4948786508
BL         1.2999290529        1.7135481779        1.4066246269
NL         1.8384406688        2.5532993649        1.2608227184
NL         1.2001005244        3.0296403067        0.6711716922
NL         0.3831784768        3.0603677203        1.2372122860
LL        -0.3170211465        3.2208950843        0.5546546617
LL        -0.1178623161        2.4209503350       -0.0209976671
BL        -0.1245895957        1.6323102970        0.6102652193
LL        -1.0633123269        1.6652759853        0.9831294350
LL        -1.6410501044        1.5447838713        0.1734259443
LL        -1.3060631881        0.6573515042       -0.1276694030
BL        -1.7554992398        0.3499278760       -0.9627932262
LL        -2.7439280102        0.2905063227       -0.8395013501
LL        -2.9313284373       -0.0392913293       -1.7600504486
BL        -2.2467688079       -0.7698656060       -1.7441454171
NL        -2.5461967465       -1.3606831995       -0.9965084830
BL        -1.7947886933       -2.0085462651       -0.8814923044
BL        -1.0141936432       -1.5266047131       -0.4724715212
BL        -1.2754278926       -1.4738191760        0.4795212239
LL        -0.5377592095       -1.1003746336        1.0429216456
BL        -0.3477600641       -0.1598624585        0.7544535004
BL         0.2623432311        0.1368527714        1.4920624354
BL         0.3835156049        1.1275658709        1.4649638743
BL         0.9129108732        1.1608121434        2.3083600766
NL         1.1876739234        2.0840371654        2.6101781537
NL         1.6585768899        1.9629096960        3.4973316973
NL         2.3395025258        1.2250699175        3.4147975904
LL         1.8563406946        0.5664518803        2.8481396771
BL         1.9599190126        1.0098597899        1.9553264899
BL         1.3264127100        0.6056849247        1.2981227814
LL         1.5032677652       -0.3647848484        1.2571819983
BL         0.7691293984       -0.5103517267        0.6029768736
LL         0.7754371944       -1.4960188284        0.4724323424
BL         0.0373091652       -1.5631141492       -0.1875548098
LL        -0.0629095687       -2.5434052253       -0.3536959487
BL        -0.8203477911       -2.5277587026       -1.0036356700
LL        -0.9937503093       -3.4919565309       -1.2214460623
           56
Energy of minimum  7=       -4.1369194471 first found at step       21
LL         2.8596518457        2.0074524010        0.8833594768
BL         2.0587372859        1.4055499813        0.8145394030
LL         2.1811775126        0.9421848405       -0.0494223653
BL         1.3708248756        0.3718720126       -0.0283897729
LL         1.4476824660       -0.1273659309       -0.8926281113
BL         0.6507258476       -0.7239096582       -0.8789016690
LL         0.6722874081       -1.2289941210       -1.7454692389
BL        -0.1563900686       -1.7364883888       -1.5599666363
BL        -0.4506557002       -2.3566353678       -2.2752917248
NL        -0.6112089145       -1.8342656850       -3.1105988785
NL        -1.0864350187       -2.5154773811       -3.6651170777
NL        -1.9529633847       -2.6708967313       -3.1708580630
LL        -1.7644275499       -2.6727591473       -2.1808729563
BL        -1.3659941148       -1.7633505500       -2.0030921263
BL        -1.0888073833       -1.5484408620       -1.0680599805
LL        -0.7237302207       -0.6213458911       -1.2029845152
BL        -0.3099864830       -0.4436662069       -0.3167520777
LL         0.0759466501        0.4760782016       -0.3839702882
BL         0.4380302166        0.5808651432        0.5432554929
BL         0.9244863659        1.4487972698        0.5547616420
BL         1.2190610722        1.6732517702        1.4800188779
NL         1.6659541860        2.5713773324        1.4185470473
NL         0.9817477503        3.1956199810        1.0393729050
NL         0.2189011229        3.2528673865        1.6866479684
LL        -0.4281972211        3.8394954347        1.1975519559
LL        -0.5904031005        3.2844926094        0.3821547220
BL        -1.0202851965        2.4538079473        0.7422299229
LL        -1.1214918713        1.8298776010       -0.0326467203
LL        -1.5866798488        2.2883925135       -0.7924044565
LL        -1.4793974066        1.6066132527       -1.5202146214
BL        -2.0100708490        0.7919149188       -1.2644329874
LL        -1.8853649051        0.6194625006       -0.2839348339
LL        -2.4380929617       -0.1986129326       -0.1208507766
BL        -1.9228007996       -0.9220480395       -0.5846434289
NL        -2.4651335368       -1.7484984286       -0.4940109940
BL        -1.7930708219       -2.3641002583       -0.8771820919
BL        -1.0782931746       -2.2622823237       -0.1886110681
BL        -1.0145681282       -1.2859853800       -0.0013773610
LL        -0.3910720223       -1.1913733880        0.7693605634
BL        -0.3192255326       -0.1983332210        0.7815287800
BL         0.3390630769        0.0128410589        1.4901772641
BL         0.3695285902        1.0027573888        1.5740432765
BL         1.0059079042        0.9804156083        2.3409481740
NL         1.2500001500        1.8795178980        2.7281482109
NL         1.8480320431        1.6892219942        3.5213094141
NL         2.5621442772        1.0326937887        3.2489970335
LL         2.0541951560        0.4072945175        2.6659935945
BL         2.0035981461        0.9597958329        1.8312215005
BL         1.3188297452        0.5820937206        1.2139334949
LL         1.5291598855       -0.3666957929        1.0034144769
BL         0.7330003144       -0.5088694804        0.4103204890
LL         0.7908502209       -1.4756643037        0.1592341101
BL        -0.0094462567       -1.6038904518       -0.4338930708
LL         0.0544900968       -2.5763232117       -0.6508850898
BL        -0.7590333502       -2.6345342428       -1.2230892221
LL        -0.8007883903       -3.6057975293       -1.4805175917
           56
Energy of minimum  8=******************** first found at step        0
LL         0.0000000000        0.0000000000        0.0000000000
BL         0.0000000000        0.0000000000        0.0000000000
LL         0.0000000000        0.0000000000        0.0000000000
BL         0.0000000000        0.0000000000        0.0000000000
LL         0.0000000000        0.0000000000        0.0000000000
BL         0.0000000000        0.0000000000        0.0000000000
LL         0.0000000000        0.0000000000        0.0000000000
BL         0.0000000000        0.0000000000        0.0000000000
BL         0.0000000000        0.0000000000        0.0000000000
NL         0.0000000000        0.0000000000        0.0000000000
NL         0.0000000000        0.0000000000        0.0000000000
NL         0.0000000000        0.0000000000        0.0000000000
LL         0.0000000000        0.0000000000        0.0000000000
BL         0.0000000000        0.0000000000        0.0000000000
BL         0.0000000000        0.0000000000        0.0000000000
LL         0.0000000000        0.0000000000        0.0000000000
BL         0.0000000000        0.0000000000        0.0000000000
LL         0.0000000000        0.0000000000        0.0000000000
BL         0.0000000000        0.0000000000        0.0000000000
BL         0.0000000000        0.0000000000        0.0000000000
BL         0.0000000000        0.0000000000        0.0000000000
NL         0.0000000000        0.0000000000        0.0000000000
NL         0.0000000000        0.0000000000        0.0000000000
NL         0.0000000000        0.0000000000        0.0000000000
LL         0.0000000000        0.0000000000        0.0000000000
LL         0.0000000000        0.0000000000        0.0000000000
BL         0.0000000000        0.0000000000        0.0000000000
LL         0.0000000000        0.0000000000        0.0000000000
LL         0.0000000000        0.0000000000        0.0000000000
LL         0.0000000000        0.0000000000        0.0000000000
BL         0.0000000000        0.0000000000        0.0000000000
LL         0.0000000000        0.0000000000        0.0000000000
LL         0.0000000000        0.0000000000        0.0000000000
BL         0.0000000000        0.0000000000        0.0000000000
NL         0.0000000000        0.0000000000        0.0000000000
BL         0.0000000000        0.0000000000        0.0000000000
BL         0.0000000000        0.0000000000        0.0000000000
BL         0.0000000000        0.0000000000        0.0000000000
LL         0.0000000000        0.0000000000        0.0000000000
BL         0.0000000000        0.0000000000        0.0000000000
BL         0.0000000000        0.0000000000        0.0000000000
BL         0.0000000000        0.0000000000        0.0000000000
BL         0.0000000000        0.0000000000        0.0000000000
NL         0.0000000000        0.0000000000        0.0000000000
NL         0.0000000000        0.0000000000        0.0000000000
NL         0.0000000000        0.0000000000        0.0000000000
LL         0.0000000000        0.0000000000        0.0000000000
BL         0.0000000000        0.0000000000        0.0000000000
BL         0.0000000000        0.0000000000        0.0000000000
LL         0.0000000000        0.0000000000        0.0000000000
BL         0.0000000000        0.0000000000        0.0000000000
LL         0.0000000000        0.0000000000        0.0000000000
BL         0.0000000000        0.0000000000        0.0000000000
LL         0.0000000000        0.0000000000        0.0000000000
BL         0.0000000000        0.0000000000        0.0000000000
LL         0.0000000000        0.0000000000        0.0000000000
           56
Energy of minimum  9=******************** first found at step        0
LL         0.0000000000        0.0000000000        0.0000000000
BL         0.0000000000        0.0000000000        0.0000000000
LL         0.0000000000        0.0000000000        0.0000000000
BL         0.0000000000        0.0000000000        0.0000000000
LL         0.0000000000        0.0000000000        0.0000000000
BL         0.0000000000        0.0000000000        0.0000000000
LL         0.0000000000        0.0000000000        0.0000000000
BL         0.0000000000        0.0000000000        0.0000000000