           56
Energy of minimum  1=      -13.7328508068 first found at step        1
LL         2.7978543570        2.1838968673        0.9988272700
BL         2.0143190080        1.5655825234        0.8903883877
LL         2.1724137061        1.1252883204        0.0174235380
BL         1.3778068886        0.5296401235       -0.0085763277
LL         1.5057089696        0.0477364837       -0.8799523881
BL         0.7421342276       -0.5942263632       -0.9110123250
LL         0.8230383978       -1.0903011693       -1.7864806418
BL         0.0370699687       -1.6864811317       -1.6578218199
BL        -0.2092200984       -2.2823538564       -2.4182827716
NL        -0.3251700511       -1.7484378570       -3.2515112428
NL        -0.7433661817       -2.4604045626       -3.8073871002
NL        -1.5934993817       -2.6535032428       -3.3002181242
BL        -1.4070768987       -2.5620331371       -2.3102492213
BL        -1.0980588186       -1.6269412578       -2.2003854385
BL        -0.9136218901       -1.4113137791       -1.2611942725
LL        -0.5545066778       -0.4764671750       -1.3732507655
BL        -0.3057863781       -0.2559236763       -0.4368199235
LL         0.1614823972        0.6275808577       -0.4890801735
BL         0.3793735839        0.7460115022        0.4793897905
BL         0.9117344464        1.5885790921        0.5257627155
BL         1.0984106087        1.7722782021        1.4885206043
NL         1.5710980762        2.6616456311        1.5437428151
NL         0.8919026913        3.2011930825        1.0673472709
NL         0.0851969063        3.0346623293        1.6273809429
LL        -0.6243078039        3.2142038966        0.9617629350
LL        -0.2775391484        2.5537621876        0.2888951463
BL        -0.2006442181        1.6732499300        0.7820827058
LL        -1.1577736500        1.4839161628        1.0153982408
LL        -1.5404738792        1.4567804993        0.0950646481
BL        -1.0609525096        0.6894536057       -0.3385205717
BL        -1.4148719277       -0.1296159062        0.0927403052
LL        -2.3995841617       -0.0562134119       -0.1212847932
LL        -2.3298772173        0.0597431404       -1.1099143633
BL        -1.7965805188       -0.7542053088       -1.3001460374
NL        -2.4154222160       -1.5212380807       -1.2234823289
BL        -1.7293135722       -2.2318154854       -1.1917099909
LL        -1.3963853334       -2.1028977402       -0.2476956521
BL        -1.0542383805       -1.1583382273       -0.2110503349
LL        -0.7584222100       -1.0096384943        0.7304931866
BL        -0.4073140616       -0.0725106743        0.6625553505
LL        -0.1397673834        0.1189609070        1.6038664768
BL         0.2713540666        1.0324043844        1.5970744516
LL         0.5234886991        1.0858484938        2.5723996971
NL         1.0075539886        1.9434030912        2.7650159469
NL         1.4073782217        1.7747695527        3.6665256143
NL         2.0723303626        1.0417385920        3.4729269886
LL         1.6368485898        0.5429653937        2.7204204879
BL         1.8711574496        1.0512784125        1.8820721728
BL         1.2700712184        0.7302873992        1.1465840192
LL         1.3548623709       -0.2522012734        1.0405296727
BL         0.6771013606       -0.3489638708        0.3091441517
LL         0.6574328684       -1.3288788017        0.1571429504
BL        -0.0154763916       -1.3698758416       -0.5748291842
BL        -0.0523712603       -2.3440407013       -0.7478198827
BL        -0.7054344451       -2.5030864714       -1.4704664638
LL        -0.6920667647       -3.5049531663       -1.5723363442
           56
Energy of minimum  2=      -12.3334625398 first found at step        3
LL         2.8921516502        1.9960959108        1.0251507658
BL         2.0599744627        1.4466718085        0.9106449831
LL         2.2423525118        0.8899423321        0.1004318386
BL         1.3994945282        0.3573825490        0.0313478635
LL         1.5412927568       -0.2344502549       -0.7656607250
BL         0.7026102326       -0.7785115430       -0.7894015782
LL         0.7733391407       -1.3767596960       -1.5999084775
BL        -0.0997174004       -1.8460428730       -1.4965906287
BL        -0.3571231681       -2.4657395982       -2.2346288690
NL        -0.2454688710       -2.0161044478       -3.1173547158
NL        -0.7130039537       -2.6955791947       -3.6745095123
NL        -1.6464986378       -2.6731540217       -3.2946734817
BL        -1.5822436592       -2.5022337422       -2.3000944048
BL        -1.1155009068       -1.6305796157       -2.2265126815
BL        -1.0189618684       -1.3366985938       -1.2934343266
LL        -0.4880944187       -0.4926299882       -1.4283080483
BL        -0.3228894910       -0.2237937323       -0.4841539926
LL         0.2673936180        0.5788476737       -0.5575272561
BL         0.3914065876        0.7614092371        0.4178395773
BL         1.0201438748        1.5337691331        0.4469816882
BL         1.0796675352        1.7593183586        1.4128267261
NL         1.6793801351        2.5645780103        1.5357192677
NL         1.1650469116        3.2150819188        0.9990557730
NL         0.3057487264        3.1961459292        1.5015092460
LL        -0.3197163604        3.3257191653        0.7501966279
LL         0.0316572701        2.5426435335        0.2275983616
BL        -0.0190554742        1.7373365584        0.8440745636
LL        -1.0113244824        1.7066360949        0.9945673056
LL        -1.2832443557        1.6401097196        0.0382765229
BL        -0.9204505007        0.7543061067       -0.2582090583
BL        -1.5542436640        0.0882204433        0.1127247357
LL        -2.4280169629        0.3740331509       -0.3016502339
LL        -2.1211199104        0.4167159149       -1.2477645746
BL        -1.7458497451       -0.4989431886       -1.3196712316
NL        -2.5146827709       -1.1179193813       -1.3901088324
BL        -1.9896897436       -1.9478696696       -1.2856520680
LL        -1.7415595029       -1.8371858098       -0.3172496177
BL        -1.2611219523       -0.9526810553       -0.2944427924
LL        -0.9905239541       -0.8338755607        0.6582255952
BL        -0.5074336949        0.0450237428        0.6049093741
LL        -0.2198874763        0.1366299635        1.5573925353
BL         0.3262339507        0.9720127983        1.6332288545
LL         0.6331110162        0.8576498074        2.5908534618
NL         1.1816820955        1.6540251796        2.8610781175
NL         1.7268198770        1.2988240619        3.6216448921
NL         2.5990467962        1.0101807472        3.1919404503
LL         2.3975709021        0.4744404293        2.3593758349
BL         1.6792089990        1.0215012878        1.9359962762
BL         1.2981132615        0.6684021306        1.0902034034
LL         1.0018441678       -0.2675024809        1.2287934844
BL         0.5491836212       -0.3819132057        0.3457504788
LL         0.2659913046       -1.3318421369        0.3665593230
BL        -0.2245318365       -1.3648450367       -0.4969419040
BL        -0.4982646774       -2.3147225756       -0.5381204195
BL        -1.0191039001       -2.4616557707       -1.3644308000
LL        -1.2511425939       -3.4404205238       -1.3178976977
           56
Energy of minimum  3=      -10.6579298017 first found at step        4
LL         2.9286616140        2.0779933494        1.0744264355
BL         2.1165254436        1.5060938352        0.9306276823
LL         2.2587900846        1.0912170312        0.0408830191
BL         1.4356438287        0.5358377714       -0.0129912447
LL         1.5490855880        0.0529053288       -0.8869445541
BL         0.7710445861       -0.5741568504       -0.9116503020
LL         0.8319841583       -1.0851029152       -1.7812503715
BL         0.0442246193       -1.6775081957       -1.6337387789
BL        -0.2136806055       -2.2868970486       -2.3799374334
NL        -0.3876403341       -1.7624195599       -3.2083824061
NL        -0.8136178661       -2.4906616961       -3.7366070061
NL        -1.6349725884       -2.6993909572       -3.1888182701
BL        -1.4090628442       -2.6040865335       -2.2071201374
BL        -1.1097138632       -1.6642778124       -2.1098181492
BL        -0.8929661897       -1.4412873376       -1.1783733063
LL        -0.5534403519       -0.5051545767       -1.3311394748
BL        -0.2723496220       -0.2458599081       -0.4151940281
LL         0.1957584322        0.6297437943       -0.5307846875
BL         0.4248810715        0.7928375431        0.4246686272
BL         0.9857962399        1.6163642432        0.4234423655
BL         1.1739508995        1.8672818882        1.3689599848
NL         1.6687650552        2.7439340413        1.3401783855
NL         1.0096280673        3.2488474626        0.7986000581
NL         0.1845715658        3.1541134877        1.3486696843
LL        -0.5149835864        3.3198866136        0.6664480093
LL        -0.2021522283        2.6096788337        0.0287340406
BL        -0.1453878915        1.7619930571        0.5764017671
LL        -1.0971123263        1.5978766843        0.8489181717
LL        -1.5142881719        1.4832517678       -0.0486743780
BL        -1.0431214527        0.6812369725       -0.4266879805
BL        -1.3416328438       -0.1034532597        0.1046246911
LL        -2.3405691759       -0.0737848297       -0.0455468138
LL        -2.3518076214       -0.0274240054       -1.0432855482
BL        -1.8019775850       -0.8311085214       -1.2286464493
NL        -2.3742084585       -1.6159068837       -1.0436956452
BL        -1.6593051249       -2.2992179270       -1.0217498141
LL        -1.2593505891       -2.1180412401       -0.1128053607
BL        -0.9757946489       -1.1536123839       -0.1228166298
LL        -0.6096140511       -0.9690401798        0.7897986242
BL        -0.3468953124       -0.0072723073        0.6886290149
LL         0.0149987987        0.2487056083        1.5876973424
BL         0.2414762215        1.2212365923        1.4834938907
LL         0.6522105092        1.4807224501        2.3652361666
NL         0.0946384977        1.2845229098        3.1610980277
NL         0.7929273895        1.4804496513        3.8560580301
NL         1.5887822133        0.9146656589        3.5822780819
LL         1.3368181249        0.5353051587        2.6866204722
BL         1.7763715212        1.0699808711        1.9443930186
BL         1.2699508150        0.7860088003        1.1305638889
LL         1.3457904962       -0.2003952770        1.0600736835
BL         0.7144667837       -0.3155926583        0.2941213524
LL         0.7063140589       -1.2995064503        0.1771605377
BL         0.0387231698       -1.3601053521       -0.5554319471
BL         0.0051584132       -2.3369940879       -0.7091098705
BL        -0.6595486258       -2.5205844130       -1.4141678196
LL        -0.6327443079       -3.5238482380       -1.4974366469
           56
Energy of minimum  4=       -9.6015119951 first found at step       14
LL         2.8705971580        1.9577300150        1.1021100756
BL         2.0305048460        1.4252901527        0.9610448908
LL         2.1957277432        0.9523670759        0.1082064972
BL         1.3484632183        0.4391173655        0.0457166668
LL         1.4967118670       -0.0779955529       -0.8022095741
BL         0.6910992015       -0.6614697494       -0.8694832282
LL         0.7939121224       -1.1959478620       -1.7198363666
BL        -0.0408592045       -1.7287032674       -1.6234449729
BL        -0.2780674026       -2.3427776013       -2.3705167837
NL        -0.3060998493       -1.8357933171       -3.2274254595
NL        -0.7419795162       -2.5386506507       -3.7798452417
NL        -1.6310764909       -2.6444412997       -3.3160348175
BL        -1.4966124452       -2.5303794950       -2.3194379122
BL        -1.1196604444       -1.6193051706       -2.2122484964
BL        -0.9855163742       -1.3858975879       -1.2659105533
LL        -0.5567052402       -0.4839836561       -1.3724857909
BL        -0.3624347216       -0.2644115237       -0.4232917334
LL         0.1629102843        0.5834293375       -0.4874170671
BL         0.3320744565        0.7380232054        0.4847836520
BL         0.9746723320        1.5032467513        0.5272171525
BL         1.0736432630        1.7131361580        1.4997895974
NL         1.7086710906        2.4889245038        1.6213920804
NL         1.3227413089        3.1325884414        0.9773462208
NL         0.3823965532        3.2269467000        1.2826026220
LL        -0.0068759869        3.5949121805        0.4503983728
LL         0.3133997840        2.8561648748       -0.1520260996
BL        -0.0176595071        2.0047496678        0.2761168539
LL        -1.0031584451        2.1712065632        0.2537800120
LL        -1.4453230110        1.3359717276        0.5651230914
BL        -1.0079772868        0.6170923735        0.0230198839
BL        -1.5291259648       -0.1931863114        0.2590691767
LL        -2.4685497499        0.0280228851       -0.0312465796
LL        -2.2580994189        0.2244752017       -0.9817391962
BL        -1.7829622043       -0.6283028242       -1.1671205094
NL        -2.4693452797       -1.3415514679       -1.2236376293
BL        -1.8532863150       -2.1178625048       -1.2326365538
LL        -1.5290098317       -2.0736014208       -0.2794858898
BL        -1.1377087258       -1.1503383506       -0.2051178742
LL        -0.8228292156       -1.0522535338        0.7398401959
BL        -0.4551793757       -0.1188253916        0.6883216075
LL        -0.1949506329        0.0803813193        1.6289676660
BL         0.2177852972        0.9935873550        1.6141308727
LL         0.4492195322        1.0591153404        2.5922205864
NL         0.9425857092        1.9104218276        2.7832856814
NL         1.3113201946        1.7432511643        3.6985086951
NL         1.9533524182        0.9807942991        3.5415857671
LL         1.5232053354        0.4749360963        2.7903022958
BL         1.7918771233        0.9625902575        1.9502927731
BL         1.2083170064        0.6510251387        1.1959296893
LL         1.2670632461       -0.3322302347        1.0972292282
BL         0.6084928424       -0.3994064536        0.3464018782
LL         0.5526224375       -1.3788185749        0.1974896339
BL        -0.1062892822       -1.3953329326       -0.5479130594
BL        -0.1899003388       -2.3678688080       -0.7123576874
BL        -0.8408845580       -2.4940307168       -1.4436149877
LL        -0.8852395520       -3.4961317192       -1.5357393533
           56
Energy of minimum  5=       -9.4082645266 first found at step        5
LL         2.6122695049        2.3028220074        1.2199927521
BL         1.9008278090        1.6079594543        1.0821932948
LL         2.0938126696        1.2423437266        0.1724191538
BL         1.3842352839        0.5444348996        0.0965738244
LL         1.5147113409        0.1461172395       -0.8101224787
BL         0.8345523954       -0.5849644661       -0.8118620794
LL         0.8589715535       -0.9566576935       -1.7428034555
BL         0.2034481874       -1.7056116955       -1.6619568947
BL        -0.0354576295       -1.9989268162       -2.5828247187
NL         0.0325059388       -2.9805820751       -2.7156731828
NL        -0.4553209184       -3.0636684061       -3.5864958421
NL        -1.4074946159       -2.7714292056       -3.3961686525
BL        -1.4535167440       -2.4282234636       -2.4490408240
BL        -0.9853072990       -1.5491591121       -2.4016424226
BL        -0.8280451039       -1.3062691656       -1.4535138495
LL        -0.3967141575       -0.3966996420       -1.5080622380
BL        -0.2561080864       -0.1940718483       -0.5376775465
LL         0.2307019056        0.6801918783       -0.5167638531
BL         0.3284686307        0.7870007715        0.4748748707
BL         0.8584000200        1.6232997082        0.5891737049
BL         0.8799978560        1.7773351238        1.5700123064
NL         1.3714590545        2.6389194488        1.7647848139
NL         0.7893292454        3.2546362114        1.2572591992
NL        -0.0730969731        3.0931698642        1.7274645208
LL        -0.6919560462        3.2197766362        0.9699481958
LL        -0.2425886686        2.5300797525        0.3933726817
BL        -0.2166821943        1.6745959031        0.9392308584
LL        -1.2022334984        1.5220618214        1.0549068863
LL        -1.4496247065        1.4990724166        0.0894388830
BL        -0.9871662350        0.6830600775       -0.2639503345
BL        -1.5392689867       -0.0737691223        0.0601834565
LL        -2.4446698241        0.1297102318       -0.3345852399
LL        -2.1530810710        0.2679348406       -1.2759527953
BL        -1.6577543440       -0.5834754734       -1.3928818673
NL        -2.3319912427       -1.3016984892       -1.4890522970
BL        -1.6990495560       -2.0583535047       -1.4191511001
LL        -1.4696441728       -1.9681981145       -0.4525820418
BL        -1.1008953872       -1.0379004668       -0.4080880864
LL        -0.8692474574       -0.9436011210        0.5555672006
BL        -0.4934886702       -0.0159681547        0.5678534820
LL        -0.2498388315        0.0332712596        1.5352365662
BL         0.2025772545        0.9103027003        1.6932930759
LL         0.4862437119        0.7524791524        2.6518432649
NL         0.9433591145        1.5742940761        3.0032367557
NL         1.4910921739        1.2144265717        3.7596980329
NL         2.4015913201        1.0383091969        3.3490800488
LL         2.2822042888        0.5504164369        2.4724365658
BL         1.5340262514        1.0616347534        2.0559151236
BL         1.2219034460        0.7395367377        1.1701978633
LL         1.0041261589       -0.2285300233        1.2255178013
BL         0.6067933399       -0.3232687089        0.3126435787
LL         0.3952756452       -1.2936881051        0.2464581782
BL        -0.0306583491       -1.3032700560       -0.6544540808
BL        -0.2500344644       -2.2602938771       -0.7970391995
BL        -0.6617142902       -2.3884410998       -1.6922261713
LL        -0.8302345769       -3.3824729915       -1.7062356887
           56
Energy of minimum  6=       -8.7037171848 first found at step       10
LL         2.9388378393        1.9433941280        1.1697254486
BL         2.1207851454        1.3814553552        1.0183853560
LL         2.3063937923        0.9057787055        0.1698265611
BL         1.4734762112        0.3686137933        0.1032780195
LL         1.6245406351       -0.1496532651       -0.7412648767
BL         0.8217410544       -0.7381076006       -0.7957000544
LL         0.9215158249       -1.2699407855       -1.6469780224
BL         0.0935827904       -1.8102918211       -1.5440514866
BL        -0.1597047095       -2.3886577292       -2.3134159000
NL        -0.0567636038       -1.8809345175       -3.1669532257
NL        -0.4941213353       -2.5346526608       -3.7768974055
NL        -1.4250504954       -2.5833621552       -3.3966463330
BL        -1.3490572287       -2.4648814955       -2.3963926844
BL        -0.9435895276       -1.5673350841       -2.2792591448
BL        -0.8204684201       -1.3154866434       -1.3325767557
LL        -0.4088689092       -0.4202792251       -1.4365834190
BL        -0.2271514877       -0.2533086213       -0.4798577751
LL         0.2849536997        0.5970831554       -0.4973021740
BL         0.4595781373        0.6888155307        0.4775271713
BL         1.0506276962        1.4899052535        0.5409972899
BL         1.1771170206        1.7014355408        1.5052640120
NL         1.7094057294        2.5559695194        1.5503975916
NL         1.1240363367        3.1066086935        0.9713518316
NL         0.2489875818        3.0208552294        1.4380607175
LL        -0.3743419098        3.2558535268        0.7052515781
LL        -0.0380522817        2.5715562333        0.0505513037
BL        -0.0666091233        1.6836430378        0.5333399742
LL        -1.0392613596        1.5696411722        0.7311820691
LL        -1.4994689647        1.5726266247       -0.1601616939
BL        -1.1547832436        0.7968326225       -0.7016942679
BL        -1.3223923509        0.0062959069       -0.1230433279
LL        -2.2861422218        0.1033636006        0.1679137692
LL        -2.9665459340        0.0446127082       -0.5755464742
BL        -2.8454567232       -0.8782224926       -0.9319076255
NL        -1.9986923542       -0.8613889621       -1.4468516007
BL        -1.7700293881       -1.8315920531       -1.4606301129
LL        -1.6913741704       -1.9107124446       -0.4574649640
BL        -1.1145419598       -1.0963458389       -0.2949029109
LL        -0.9515613849       -0.9382447083        0.6785954370
BL        -0.4219187702       -0.0817566627        0.6085108499
LL        -0.2624370091        0.1958754303        1.5542362117
BL         0.2599600596        1.0566149466        1.5237705706
LL         0.3837334863        1.1709863342        2.5197391482
NL         0.9363574104        1.9834567246        2.7247827285
NL         1.1950975255        1.8407119395        3.6805176167
NL         1.7948016167        1.0319304532        3.6196960162
LL         1.4089153904        0.5311473323        2.8417224454
BL         1.8202883201        0.9373154374        2.0158343756
BL         1.2820492587        0.6338418351        1.2258419977
LL         1.2514783252       -0.3570196730        1.1955017298
BL         0.6676024132       -0.4265043370        0.3854214548
LL         0.5131039117       -1.4012197217        0.3002983874
BL        -0.0587779552       -1.3865632641       -0.5119503556
BL        -0.2697388620       -2.3453561106       -0.6300077350
BL        -0.8343506544       -2.4323272862       -1.4360161495
LL        -1.0177148741       -3.4220756116       -1.4734651874
           56
Energy of minimum  7=       -5.5921241289 first found at step       16
LL         2.8545950250        1.9499896366        1.1345330537
BL         2.0030362658        1.5100181193        0.8364356000
LL         2.2835966751        0.8497672738        0.1555859560
BL         1.3868252231        0.4914212793       -0.0796719073
LL         1.6216512331       -0.2189981654       -0.7429284684
BL         0.7307209423       -0.5764356910       -1.0051425432
LL         0.9300912913       -1.3464339894       -1.6146470993
BL        -0.0256433545       -1.5148626794       -1.7794094182
BL        -0.2423105622       -2.3896736122       -2.1847988836
NL        -0.1846083454       -2.2836174667       -3.1731517035
NL        -0.5728015104       -3.1627353172       -3.4186298011
NL        -1.4758295272       -3.1095396650       -2.9777891353
BL        -1.3712696464       -2.6096834638       -2.1031868411
BL        -1.0803339199       -1.6829062971       -2.3254433847
BL        -1.0115831989       -1.2453880871       -1.4506533207
LL        -0.5378229251       -0.3721510274       -1.6017931927
BL        -0.3823166304       -0.1500404983       -0.6403228394
LL         0.2315708946        0.6316351935       -0.6682992003
BL         0.3478901545        0.7541999042        0.3146076469
BL         0.9724113029        1.5169348670        0.3523665590
BL         1.0227884165        1.7492596127        1.3143492634
NL         1.4657577176        2.6467396083        1.2587303174
NL         1.2520356904        3.1035599073        2.1163783999
NL         0.2640387299        2.9474595117        2.2016376396
LL        -0.1910791933        3.2825378514        1.3704616402
LL         0.1732799457        2.7285330315        0.6108331058
BL        -0.0078514052        1.7636421218        0.8530014061
LL        -1.0092879106        1.6850539626        0.9170542807
LL        -1.2887489740        1.7719920232       -0.0351085007
BL        -0.9123702400        0.9369303188       -0.4519492622
BL        -1.4404864012        0.1695854177       -0.0971781654
LL        -2.3804837756        0.3819556791       -0.3992796995
LL        -2.1822827327        0.4577430787       -1.3702890153
BL        -1.7655248915       -0.4378140229       -1.4728302131
NL        -2.4922067198       -1.1107763771       -1.5151611120
BL        -1.9273240327       -1.9190448646       -1.4134019129
LL        -1.7063477136       -1.8048268593       -0.4481662590
BL        -1.2393379370       -0.9215004968       -0.4249514647
LL        -0.9935369312       -0.8353339301        0.5332381432
BL        -0.4888852313        0.0233651452        0.5094095975
LL        -0.2728494233        0.1177668247        1.4803514376
BL         0.2557322830        0.9588302539        1.5515527768
LL         0.4868981639        0.9740606491        2.5283557926
NL         1.0619064302        1.7799212660        2.6851305242
NL         1.4648737828        1.6035530466        3.5810796366
NL         2.0699052457        0.8302303014        3.3624203658
LL         1.5917419964        0.3960950623        2.5946041694
BL         1.7975817471        0.9571560388        1.7808726852
BL         1.1904016555        0.6681552356        1.0413108083
LL         1.2591329101       -0.3184253512        0.9049103359
BL         0.5633685770       -0.3956406901        0.1858872211
LL         0.4928082616       -1.3768049573       -0.0163098255
BL        -0.2288969763       -1.2970037192       -0.6973119837
BL        -0.4976997712       -2.1926445278       -1.0858404900
BL        -0.8032180873       -2.7348932179       -0.3074976568
LL        -1.0617025928       -3.6309172477       -0.6739550631
           56
Energy of minimum  8=       -4.9487966591 first found at step       15
LL         4.3918961355        0.1768728869       -1.2990625547
BL         3.4748532121       -0.2193228874       -1.3673137829
LL         2.8436809341        0.5521328160       -1.3093350977
BL         1.9430822742        0.1261284395       -1.3803769750
LL         1.8475977987       -0.4472720240       -0.5685598190
BL         0.9410548353       -0.8550205058       -0.6750165999
LL         1.0072912057       -1.4303524700       -1.4907914127
BL         0.0722734920       -1.7505845481       -1.4605281091
BL        -0.1617482220       -2.3631100706       -2.2105831261
NL         0.0187286439       -1.9098688430       -3.0786867044
NL        -0.4291888315       -2.5796941032       -3.6595507618
NL        -1.3744264502       -2.5417268899       -3.3137635043
BL        -1.3485163176       -2.3844995335       -2.3135639604
BL        -0.8806165043       -1.5167191511       -2.1903438585
BL        -0.8572936957       -1.2599641035       -1.2420917080
LL        -0.3134862606       -0.4102173309       -1.2758429138
BL        -0.3015906004       -0.1538913968       -0.3123381273
LL         0.3159494297        0.6338438813       -0.2528282003
BL         0.2424016377        0.8249921189        0.7258723727
BL         0.8785157710        1.5776422530        0.8831257390
BL         0.8395457585        1.7970963265        1.8534405851
NL         1.4679548614        2.5706823286        1.9935061864
NL         1.0515284644        3.1865690418        1.3396909065
NL         0.1195372884        3.2310347007        1.6905261692
LL        -0.3685208106        3.4478472065        0.8574224070
LL        -0.0078603533        2.6600396989        0.3493250129
BL        -0.2227699090        1.8461644123        0.9124313470
LL        -1.2250313464        1.8337752288        0.8896896283
LL        -1.3312098735        1.7390460409       -0.0957823287
BL        -0.9165481601        0.8469667852       -0.3009015795
BL        -1.5646476337        0.1671121471        0.0184513892
LL        -2.3952334829        0.4154503381       -0.4973880393
LL        -1.9938244388        0.4512621299       -1.4081176581
BL        -1.5868074416       -0.4524778728       -1.4178422555
NL        -2.3310664818       -1.0928495217       -1.5344020777
BL        -1.8049816894       -1.9076656326       -1.3489007867
LL        -1.6651609157       -1.7917345619       -0.3590535113
BL        -1.2148551310       -0.8966651020       -0.2724249534
LL        -1.1111088367       -0.7623486258        0.7102536017
BL        -0.6601275117        0.1321158127        0.7210711189
LL        -0.5848944314        0.3020987161        1.7025311849
BL        -0.0912038267        1.1673101818        1.8050955034
LL        -0.0356512870        1.1989583829        2.8113026452
NL         0.4928667186        2.0005921138        3.1023191491
NL         0.6728593845        1.8132116205        4.0694079897
NL         1.2809464227        1.0092937120        4.0330561641
LL         0.9598480700        0.5260024529        3.2164536256
BL         1.3865192471        1.0077546772        2.4419050931
BL         0.9137811167        0.7211692410        1.6064497613
LL         0.9722305917       -0.2585897468        1.4756676629
BL         0.4200968969       -0.3181675432        0.6425778654
LL         0.3795837871       -1.2928936697        0.4620312289
BL        -0.1459089281       -1.3032442038       -0.3844095984
BL        -0.2640280485       -2.2768416095       -0.5360129492
BL        -0.8241833692       -2.3938293522       -1.3437240283
LL        -0.9221331881       -3.3936143919       -1.4140673555
           56
Energy of minimum  9=       -4.5649686672 first found at step       13
LL         2.9465230428        1.9618257668        1.0634647163
BL         2.1024601643        1.4419313376        0.9041057807
LL         2.2954373906        0.9097951367        0.0933904343
BL         1.4260506455        0.4373260850        0.0272308922
LL         1.5671696909       -0.1569096666       -0.7616432003
BL         0.7145972645       -0.6697171777       -0.8079672462
LL         0.8729904526       -1.3112670360       -1.5598495873
BL         0.0117128605       -1.7842701137       -1.4676779162