          160
Energy of minimum  1=     -492.6766284199 first found at step        7
H        10.9676011213       12.9662710127       -2.3935999968
H        12.0467335749       13.6070369230       -3.5131998186
N        11.1151549259       13.7603581433       -3.0469989286
H        10.3408596802       13.8527493033       -3.7312419892
C        11.3679363150       14.9776161327       -2.3082820261
C        12.8476573814       14.9597342684       -1.9733947334
O        13.5811436132       14.1874525690       -2.6011512426
N        13.2921297642       15.7570780839       -1.0044856782
H        12.6439655744       16.2983033923       -0.5104726355
C        14.7006231201       15.8145134683       -0.6408167883
C        15.0210123865       17.1532335891        0.0294965285
C        14.8461079878       18.3567830201       -0.8920486771
C        15.1562650675       19.6885790801       -0.2246082172
O        16.3074203969       20.1201798958       -0.2713073720
O        14.2428007389       20.2932135525        0.3355470600
C        15.1165626720       14.6332045469        0.2348418230
O        15.2954255191       14.7390981644        1.4522770189
N        15.2536624619       13.4679986499       -0.4031239348
H        15.0228634821       13.4342573279       -1.3590113486
C        15.6795153871       12.2537934414        0.2790710349
C        15.3187937984       11.0139005406       -0.5470374943
C        13.8206495800       10.8149897343       -0.7496608893
C        13.1402866384       10.8362147592       -1.9364558396
C        11.8622726452       10.5927555688       -1.5435191703
C        13.5325677672       10.7480401892       -3.2502318274
C        12.9634049746       10.5733335550        0.3062756079
N        11.7624013659       10.4324212208       -0.2195559571
H        10.9456974859       10.2270330394        0.2820853711
C        10.8587766061       10.2446576475       -2.4121205317
C        12.5341129915       10.4240615011       -4.1570265347
C        11.2252772599       10.1779425536       -3.7476542460
C        17.1666897359       12.2766015141        0.6233369822
O        18.0278500896       11.7816854181       -0.1073407559
N        17.4550465710       12.9177941155        1.7560172173
H        16.7259981796       13.3584743695        2.2505540704
C        18.8013886859       13.0235124293        2.2970308114
C        19.5540916016       14.2123426070        1.6252557866
O        20.8981386192       14.1561675178        2.0940976871
H        21.4298703260       14.7822012775        1.5925490078
C        18.9436548902       15.5857694483        1.9020852796
C        18.7134717246       13.1610825511        3.8185243466
O        17.6190758440       13.1908954163        4.3930263372
N        19.8606144043       13.2690682861        4.4952243847
H        20.6843358029       13.3625563747        3.9655053388
C        19.9197395038       13.3459525031        5.9478193865
C        21.3195209819       12.8868863078        6.3991644752
C        21.5183435688       12.7193129122        7.9032373212
C        20.6923989143       11.8850869381        8.6341103055
C        20.8722743279       11.7569136180        9.9963023162
C        22.5367931496       13.4094940746        8.5329711570
C        22.7209853063       13.2831515818        9.8941787701
C        21.8771656247       12.4673426679       10.6179369102
O        22.0133682440       12.3794789947       11.9885305595
H        22.7077554297       12.9866017493       12.2909353670
C        19.5594846586       14.7544533667        6.4329773288
O        20.3948769643       15.5333572955        6.8998365427
N        18.2738874252       15.1072980928        6.3310180552
H        17.6533074956       14.4559377210        5.9315304838
C        17.7825467572       16.4172375598        6.7485920045
C        16.5013490185       16.7592925705        5.9657205200
C        15.8947606526       18.1303289417        6.2655580880
O        14.6813998155       18.2072312330        6.4536069386
O        16.6247007209       19.1236742614        6.2838640090
C        17.5807516026       16.5142288033        8.2626226677
O        16.4869515744       16.7653718417        8.7758091042
N        18.6712050324       16.3329780824        9.0103989386
H        19.5353541447       16.2290004040        8.5506703515
C        18.6196604492       16.3189783687       10.4652451840
C        19.7632065605       15.4602811801       11.0167985810
C        19.7680018869       15.3210226273       12.5354768307
O        20.7285746510       15.7543662499       13.1670299917
O        18.8071303737       14.7813425838       13.0851616997
C        18.6440697074       17.7324218046       11.0388110302
O        19.6563020232       18.2174385074       11.5520764406
N        17.5083071262       18.4200739674       10.9281097575
H        16.7512222469       17.9969973493       10.4625423838
C        17.3801455877       19.7796744917       11.4299362043
C        16.3108083013       20.5026115190       10.6113955205
C        17.0492804361       19.8464800466       12.9230006753
O        15.9391350015       20.1884717080       13.3384192653
N        18.0375628630       19.4840812850       13.7487838097
H        18.8977436117       19.1853226740       13.3718773914
C        17.9262044434       19.5401261204       15.2024264126
C        16.9990237565       18.4142029874       15.7565280845
O        16.8320005543       18.6789218897       17.1464607175
H        16.1613591801       18.0852703078       17.4981396597
C        17.5160088932       16.9975269438       15.5338709208
C        19.3204818689       19.5087189086       15.8308833633
O        20.3222459518       19.2485862445       15.1560292604
N        19.3950216642       19.7554214501       17.1413014409
H        18.5534191286       19.7484516726       17.6499130315
C        20.6643383095       19.9083869235       17.8343768303
C        20.4763765995       20.8480004588       19.0299319638
C        21.7753275708       21.3264293546       19.6683692119
C        21.4701114909       22.2496460293       20.8365533342
C        22.7645560462       22.7353859949       21.4680273023
N        22.4849350114       23.6151645130       22.5863451928
H        23.3799209587       23.9370491227       23.0068837721
H        21.9415546336       24.4370446716       22.2537391853
H        21.9317947778       23.0995045287       23.3003832004
C        21.2426564767       18.5532567625       18.2434978065
O        21.0523513648       18.0566622438       19.3563838628
N        21.9153990401       17.9330889685       17.2722820253
H        21.9036153308       18.3276175714       16.3690952215
C        22.6775632210       16.7022531966       17.4556655604
C        21.7308830389       15.4727519976       17.6624388009
O        22.5633340856       14.3492888914       17.9337569453
H        22.0116060129       13.6266612719       18.2494292619
C        20.7967462838       15.1766435049       16.4967689163
C        23.6282578074       16.5674196266       16.2589630296
O        23.9077587147       17.5712940245       15.5913879250
N        24.1670525121       15.3801024011       15.9487069743
H        23.9253006533       14.6083472985       16.5073873399
C        25.0646767598       15.2026363232       14.8147924202
C        25.8257980978       13.8746101596       14.9322046214
C        26.9653412773       13.7223570802       13.9287461607
C        28.0858600729       14.5282437578       14.0247292283
C        26.8741788953       12.7830702034       12.9176666442
C        29.1046614598       14.3974722151       13.1037871287
C        27.8986413477       12.6614873701       12.0012349427
C        29.0123459513       13.4675773311       12.0916646424
C        24.3211305929       15.3175709833       13.4840262618
O        23.7800837718       14.3577027993       12.9257915298
N        24.2578837299       16.5690753577       13.0348648024
H        24.5178049071       17.2823002240       13.6580675958
C        23.7332494638       16.9146604962       11.7245903134
C        23.1146485638       18.3364375407       11.8338964803
O        22.3447692351       18.5267456636       10.6534779813
H        21.4122092806       18.5302503923       10.9224753665
C        24.1269278893       19.4650584586       12.0199314655
C        24.8051438175       16.7767800273       10.6349902537
O        25.8665748846       16.1853910940       10.8632594597
N        24.5672449550       17.3149904716        9.4322262240
H        23.7314775785       17.8215529323        9.3173837623
C        25.5218819759       17.2272762339        8.3316610667
C        24.8427261452       17.5411438866        6.9684618463
C        25.8029243280       17.3185836819        5.8045476099
C        23.6081337791       16.6781091211        6.7489884898
C        26.7130168614       18.1477461511        8.6085764221
O        26.7191509101       19.3400722053        8.2931153980
N        27.7108309070       17.5681143651        9.2768545380
H        27.5875457779       16.6491620632        9.6084352525
C        28.9627925874       18.2372507251        9.5942032103
C        28.7976817348       19.1036636539       10.8801081599
O        30.0112508401       19.8352069422       11.0318587182
H        29.8981816573       20.4759448589       11.7410735770
C        28.4851081972       18.3076282757       12.1464905007
C        30.0668928432       17.1862194073        9.7282089783
O        29.8226103931       15.9844134908        9.5947389910
N        31.2983088367       17.6251937998        9.9965315974
H        31.3955679146       18.5779903491       10.2166694416
C        32.4384857803       16.7253155592       10.1119383236
C        33.7247709296       17.5611169366       10.0927758601
C        35.0234361951       16.7744827517        9.9177709336
C        36.2717758377       17.6460923437        9.8874498605
O        36.8335672366       17.9082708459       10.9497770568
O        36.6775769560       18.0586690678        8.8020318812
C        32.3407142957       15.8612005166       11.3739009964
O        32.0679417878       16.4047393029       12.4470379798
O        32.5579757364       14.6542251894       11.2748621925
          160
Energy of minimum  2=     -490.6097156504 first found at step        6
H        16.8167177668       13.8718962519       -3.5289016952
H        18.2841510718       14.5911227342       -3.9265470484
N        17.2915381823       14.7896137202       -3.6366863550
H        16.7993433431       15.4079483337       -4.3087460372
C        17.4943559137       15.4044397971       -2.3435730730
C        18.7686949170       14.7949147728       -1.7898720198
O        19.5255187960       14.2082484418       -2.5718831125
N        19.0090808291       14.8958047876       -0.4844570475
H        18.3358784735       15.3221458048        0.0830839656
C        20.2203795443       14.3588198641        0.1187745719
C        20.5269851621       15.0870793654        1.4301984884
C        20.8470237981       16.5679120552        1.2481080818
C        21.1415256474       17.2952371783        2.5518170867
O        22.3044661529       17.3496499521        2.9495275490
O        20.2062170369       17.8110478244        3.1625994578
C        20.1388531206       12.8462634104        0.3210002412
O        19.9392067909       12.3333831888        1.4266084482
N        20.2762966423       12.1123134590       -0.7861258745
H        20.3571563648       12.5831906589       -1.6462724014
C        20.2582430506       10.6563806168       -0.7599146857
C        19.9734952460       10.0932701755       -2.1569666940
C        18.6033909365       10.4673788641       -2.7118604578
C        18.3431283871       11.2220624280       -3.8229585650
C        16.9846101030       11.2251738100       -3.8608248435
C        19.1070979744       11.6187972037       -4.8937636877
C        17.4306008165       10.0481918971       -2.1142742625
N        16.4493196425       10.5265047748       -2.8539070418
H        15.4942931992       10.3743089630       -2.6939221268
C        16.2608850980       11.6231126889       -4.9565071540
C        18.4040824338       12.0526584265       -6.0080711243
C        17.0111666816       12.0554082798       -6.0393814011
C        21.5442695629       10.0735044550       -0.1794501421
O        22.4966081980        9.7295498999       -0.8831542632
N        21.5656769498       10.0132674926        1.1521829543
H        20.8039957929       10.3814157890        1.6566775782
C        22.6716341486        9.4483706780        1.9099292594
C        23.7823022674       10.5224971086        2.1155936802
O        24.8816515393        9.8520230998        2.7245780434
H        25.6331043597       10.4518785578        2.7643674786
C        23.3524833860       11.7265711874        2.9527057704
C        22.1356944824        8.8899907462        3.2298595216
O        20.9385169854        8.9894407232        3.5247083340
N        23.0121209868        8.3078417247        4.0539599744
H        23.9653568527        8.3746739908        3.8198473867
C        22.6120673822        7.6890673056        5.3081632253
C        23.6824455035        6.6726331754        5.7396440451
C        23.2543019920        5.7493486434        6.8752556961
C        22.2845898344        4.7888421405        6.6563320432
C        21.8629320591        3.9840171977        7.6946144991
C        23.8243346875        5.8856195771        8.1263276191
C        23.4030734324        5.0854692031        9.1674808340
C        22.4128710294        4.1516219114        8.9470333047
O        21.9291439746        3.4034862298       10.0016990316
H        22.0629207962        3.8834373675       10.8297026785
C        22.3585358799        8.7626453580        6.3686024006
O        23.2029479083        9.0807421238        7.2101386288
N        21.1655556772        9.3619007077        6.3117285999
H        20.5838693963        9.1361149503        5.5505291866
C        20.7494144758       10.3808946109        7.2705079238
C        19.6108826167       11.2216107638        6.6645261279
C        19.0756543579       12.3417848934        7.5564746514
O        17.8574085477       12.4683472093        7.6737825459
O        19.8694593675       13.1078154295        8.1070627201
C        20.3739006853        9.8063093343        8.6384592609
O        19.2139396823        9.8007064491        9.0539628259
N        21.3911074888        9.3053518750        9.3425498633
H        22.2918321242        9.3210628103        8.9414292736
C        21.2584050253        8.7141937935       10.6680027082
C        20.6792453760        7.2920755063       10.5775310496
C        20.6594514603        6.5229306747       11.8942620987
O        21.3122090442        5.4797642958       11.9690902596
O        20.0059338706        6.9676889883       12.8367779877
C        22.6400727405        8.6561934765       11.3035484888
O        23.6222206939        8.3412260604       10.6273475339
N        22.7220661127        8.9594231962       12.5996455459
H        21.9130956410        9.1989039401       13.0988712169
C        23.9786200545        8.8886248283       13.3279329309
C        24.0911284872       10.0820454343       14.2661676970
C        24.0286138207        7.6188228506       14.1668059866
O        23.0915476795        7.3143296981       14.9071174430
N        25.1170013976        6.8597980136       14.0169650308
H        25.8329055343        7.1632364618       13.4180974063
C        25.3547400767        5.6120319729       14.7355761843
C        24.3743196873        4.4898829089       14.2622776434
O        24.6044093719        3.3630775376       15.1023035614
H        23.8878962282        2.7324795273       14.9763557083
C        24.5149658722        4.1023383004       12.7944938483
C        26.8304739782        5.2379884603       14.5515386240
O        27.6120178455        6.0384420502       14.0217282276
N        27.2638431121        4.0478517153       14.9765940303
H        26.5989261158        3.4226366007       15.3439179057
C        28.6541750673        3.6378712017       14.8485924857
C        29.0160787881        2.7073256178       16.0107421443
C        30.5082465037        2.4334232345       16.1590946782
C        30.7498342124        1.5003176821       17.3343569620
C        32.2377488691        1.2302844466       17.4878500874
N        32.4790354284        0.3367034339       18.6041720545
H        33.5001973892        0.1618703868       18.6942832585
H        32.1219188471        0.7704728891       19.4792049610
H        31.9862844866       -0.5638747415       18.4372200585
C        28.9005041216        2.9932963140       13.4827455484
O        28.8644157194        1.7721562597       13.3144126932
N        29.0968797113        3.8564333426       12.4810990671
H        29.0103313931        4.8210445088       12.6611554520
C        29.4538437121        3.4642700911       11.1203758896
C        28.2703471070        2.7483154672       10.3910939139
O        28.8076973528        2.2302432258        9.1778015039
H        28.1683487154        1.6258741510        8.7876688147
C        27.0666994058        3.6382278170       10.0940806705
C        29.9314976742        4.7113817507       10.3692496490
O        30.0307577743        5.7948744170       10.9558589913
N        30.2289842224        4.5950462207        9.0701185548
H        30.0773895669        3.7199182837        8.6476821793
C        30.6765663293        5.7213882628        8.2640390619
C        31.3675526838        5.2010353974        6.9962429480
C        32.0980424940        6.2672122954        6.1871120379
C        33.2169719788        6.8907967250        6.7095920314
C        31.6450013266        6.6027570142        4.9245268102
C        33.8758173480        7.8494100789        5.9673611231
C        32.3111431880        7.5627653995        4.1906949426
C        33.4247267468        8.1864927022        4.7098136693
C        29.4967367525        6.6410642279        7.9452288201
O        28.7642826158        6.4717402478        6.9681877892
N        29.3047213939        7.6020936337        8.8479791525
H        29.8866454759        7.6266613238        9.6411976114
C        28.2622282072        8.6149611691        8.7553782901
C        26.9057092125        8.0226192501        9.2559369383
O        25.9190292545        9.0339353261        9.0773013064
H        25.0576486398        8.7090476098        9.3904321130
C        26.9240671642        7.5418510325       10.7053357416
C        28.7157406506        9.8279753113        9.5741586339
O        29.8519169555        9.8684598280       10.0603109957
N        27.8540618617       10.8362529911        9.7460298950
H        26.9563706134       10.7349395275        9.3563454512
C        28.1568000177       11.9893378353       10.5852804015
C        27.2482146373       13.1977540656       10.2313132479
C        27.6217290881       14.4270576799       11.0523054914
C        27.3401842241       13.5453891341        8.7504083000
C        27.9686992457       11.5287659826       12.0302071536
O        26.8542252653       11.4539010109       12.5533509760
N        29.0858202356       11.1715036786       12.6637209362
H        29.9551476512       11.3227933275       12.2349505075
C        29.0674087094       10.5550389817       13.9796225691
C        29.0734157905        9.0121970369       13.7886840855
O        28.7774326130        8.4345791329       15.0544588204
H        28.5088745451        7.5190264991       14.8768982172
C        30.3798772345        8.4453535180       13.2365670508
C        30.2306491776       11.0594738252       14.8324382743
O        31.0445976919       11.8726231608       14.3874621406
N        30.3224776499       10.5685671337       16.0702154209
H        29.7279188215        9.8196209902       16.2992065072
C        31.3444108279       11.0100715933       17.0105566681
C        30.9846983013       10.4826260960       18.4057286606
C        31.7742640487       11.0882670715       19.5659077273
C        31.3719741688       10.5504529456       20.9325899919
O        31.9528538801        9.5583813925       21.3697664829
O        30.4804236947       11.1260024508       21.5546559813
C        32.7453387900       10.5632833203       16.5780257585
O        32.9160914026        9.3923362677       16.2308270611
O        33.6582536651       11.3875700287       16.6129818765
          160
Energy of minimum  3=     -487.5538280969 first found at step       10
H        11.8576876131       13.4836525235       -3.0598831715
H        11.3660230242       12.7338823938       -1.6369146900
N        11.9168518842       12.5958543661       -2.5236105717
H        11.5821650183       11.7831279598       -3.0747171797
C        13.2522750406       12.4146131347       -1.9991103699
C        13.3033231671       13.2129537012       -0.7098904749
O        12.2352297844       13.5604153057       -0.1932116020
N        14.4925607935       13.5261387595       -0.2002677088
H        15.2958364426       13.2682227333       -0.6955430470
C        14.6247072694       14.2687481314        1.0449210981
C        15.9871454422       13.9910497128        1.6858734812
C        16.1767401530       12.5400428817        2.1182356314
C        17.5341713106       12.2613726023        2.7468501708
O        17.6586508977       12.3830652046        3.9647603322
O        18.4619976573       11.9169789066        2.0158039170
C        14.3906360185       15.7660148829        0.8482042319
O        15.3144906975       16.5852375151        0.8229294191
N        13.1164441633       16.1297964706        0.6824888788
H        12.4354553163       15.4211522350        0.6355723053
C        12.7209631788       17.5219813048        0.5201466899
C        11.3217985182       17.6184932538       -0.0987462865
C        11.2225088914       17.0413481544       -1.5066188264
C        10.4682048080       15.9724417575       -1.9069855227
C        10.7389519565       15.9072842125       -3.2371979029
C         9.4168782341       15.2944172300       -1.3389449342
C        11.9190624677       17.5800529129       -2.5709811716
N        11.5913579377       16.8613125066       -3.6268110450
H        11.9101308409       17.0196663985       -4.5401233642
C         9.9989151929       15.1650841902       -4.1227128311
C         8.6653563121       14.5131092060       -2.2043459887
C         8.9498279448       14.4490194780       -3.5667587526
C        12.8022341631       18.3009639057        1.8306273443
O        11.8324269759       18.4525119313        2.5769305834
N        14.0198907453       18.7609872750        2.1189533335
H        14.7671242593       18.5362586143        1.5177238262
C        14.3144014602       19.5660886783        3.2943899352
C        14.5517407108       18.6432336992        4.5283547484
O        14.6851862352       19.5030718910        5.6563994396
H        14.6936128515       18.9686079363        6.4566648216
C        15.7645680392       17.7217007431        4.4056499248
C        15.5119975568       20.4685143166        2.9901458677
O        16.0878687077       20.4168461971        1.8971318879
N        15.9199915561       21.2968952015        3.9559839698
H        15.4986894254       21.1964025281        4.8393131792
C        17.0061631762       22.2475297135        3.7709956706
C        16.8408601140       23.3882825882        4.7876037325
C        17.7554012278       24.5957939139        4.5995839671
C        17.8169392782       25.2588349978        3.3866682603
C        18.6117301071       26.3798207571        3.2510479494
C        18.4979956843       25.0493106302        5.6719272976
C        19.2914459880       26.1696987184        5.5419337408
C        19.3398237828       26.8288321643        4.3323183349
O        20.1264310298       27.9555155965        4.2029827941
H        20.5174610406       28.1742414744        5.0616847964
C        18.3608285711       21.5429842441        3.8776601272
O        19.0666056774       21.5922371985        4.8933226333
N        18.7161627810       20.8521083902        2.7869915443
H        18.0565000926       20.7982302742        2.0579975323
C        19.9856956313       20.1413120628        2.6566006212
C        19.9182522874       19.1733450917        1.4624500506
C        21.1944435413       18.3754947848        1.1946378433
O        21.6111956770       18.3028584800        0.0395277504
O        21.7538864060       17.8011966187        2.1312678646
C        21.1760147290       21.0939216258        2.5466495285
O        21.7907832553       21.2865983941        1.4975518188
N        21.4730614755       21.6788423702        3.7063000016
H        20.9771746976       21.3524070071        4.4878247676
C        22.4585146198       22.7382926941        3.8846718782
C        22.0315171259       24.0295335158        3.1702348583
C        23.0392309200       25.1688857802        3.2785840421
O        22.8052589808       26.0836465257        4.0725565501
O        24.0371785771       25.1548109906        2.5606842829
C        22.6293293655       23.0444474352        5.3688121843
O        23.6896288197       23.5198939988        5.7760289992
N        21.5969149873       22.8152439074        6.1934198010
H        20.7394224502       22.5007619710        5.8291564232
C        21.6766626951       23.0637708578        7.6273889677
C        20.2900926191       22.9030776822        8.2445995495
C        22.6663702539       22.1698157416        8.3756971694
O        22.3650396763       21.0580908825        8.8161727147
N        23.8964248802       22.6771272820        8.4537960651
H        24.1056087506       23.4896059743        7.9389434768
C        24.9758806938       22.0813336121        9.2273208816
C        25.6447325413       20.9192074299        8.4307177359
O        26.5893329766       20.3174320399        9.3112111916
H        26.9122300972       19.5036170014        8.9118168483
C        26.3174670102       21.3445509009        7.1279464742
C        25.9578094494       23.1947085486        9.6046910953
O        25.7376484198       24.3653292575        9.2730145878
N        27.0569494299       22.8642776592       10.2901105548
H        27.2425798337       21.9059888638       10.4102161569
C        28.0054785335       23.8575574274       10.7742627124
C        28.8193016204       23.2595643165       11.9262723730
C        29.6430696417       24.2739888401       12.7111415947
C        30.4044391657       23.5740189591       13.8249316290
C        31.2184847719       24.5860132818       14.6145366155
N        31.9520465424       23.9282400291       15.6785113203
H        32.5036190121       24.6336657263       16.2072945068
H        31.2837214223       23.4567788814       16.3207247323
H        32.5954031800       23.2217984148       15.2677064021
C        28.8944899165       24.3755928755        9.6412527617
O        29.9969182086       23.8865230779        9.3826300238
N        28.3472617774       25.3591411458        8.9238725875
H        27.4136541368       25.6162142349        9.1093222951
C        29.0287700171       26.0662141181        7.8472874228
C        29.1213711829       25.1673627111        6.5735539671
O        29.9511167799       25.8657869664        5.6495575369
H        30.0992666343       25.3062701936        4.8810208297
C        27.7749922212       24.8222172673        5.9369477650
C        28.2720106679       27.3728304720        7.5862702949
O        27.3271164799       27.7085476384        8.3097034736
N        28.6694254029       28.1367782155        6.5632821660
H        29.4102558101       27.8064504112        6.0079349958
C        27.9583286778       29.3472413611        6.1835219048
C        28.8535794996       30.2522054990        5.3280344289
C        28.2426889480       31.6110391570        4.9980848745
C        28.0083683601       32.5325515976        6.0033756892
C        27.9223826013       31.9202500015        3.6887095011
C        27.4495160644       33.7558867281        5.6947823161
C        27.3636140800       33.1463390395        3.3911112272
C        27.1264899798       34.0632870043        4.3914239703
C        26.6937677304       28.9457200590        5.4312943887
O        26.7409292039       28.3671393982        4.3432381303
N        25.5541846866       29.2132563716        6.0678475011
H        25.6040931934       29.6051922477        6.9628095184
C        24.2568636445       28.9225566602        5.4794187990
C        23.2250332923       28.7331696705        6.6232231380
O        22.1121906701       28.0702230706        6.0370218132
H        22.4292229785       27.2287421111        5.6702117176
C        22.7894559478       30.0218005326        7.3154105747
C        23.8447757839       29.9739795230        4.4433247436
O        24.4695004730       31.0352638549        4.3352472109
N        22.7787387610       29.7110846030        3.6765555517
H        22.2249175836       28.9258544758        3.8849470804
C        22.3689678171       30.5933483007        2.5890092405
C        21.4395411112       29.8518924064        1.5850924984
C        21.1216222836       30.7201570788        0.3722807992
C        22.0645921977       28.5466707057        1.1044440245
C        21.7288720127       31.8677978103        3.1444499307
O        20.5307833241       31.9464136546        3.4257188492
N        22.5902501606       32.8637649000        3.3537326095
H        23.5515563431       32.6898869773        3.2328434816
C        22.1935085009       34.1892365043        3.8027790941
C        22.0594309723       34.2098595952        5.3560419245
O        21.5193194737       35.4838318828        5.6971005367
H        21.2885479784       35.4799491042        6.6314630777
C        23.3656484766       33.9612990385        6.1087256716
C        23.2055139883       35.2122973574        3.2813632296
O        24.1619678198       34.8628114545        2.5849541351
N        23.0114033030       36.4915220912        3.6095431784
H        22.2969019854       36.6844735195        4.2560875221
C        23.8953455339       37.5565904587        3.1535107550