           13
Energy of minimum  1=      -44.3268012893 first found at step        8
LA        -0.2016755790       -0.2017762371        0.9710648170
LA         0.9102057235       -0.1281118157        0.7425178978
LA        -0.7654716193       -0.1841009707       -0.0167482445
LA         0.2283260407       -0.7320077746        0.0611590193
LA         0.3378034125        0.7930596818        1.0857397110
LA        -0.6978206620        0.7584670650        0.6164461202
LA         1.1012420691        0.8776951534        0.2467502616
LA         1.0335875142       -0.0648343409       -0.3865096715
LA         0.1074286532        1.4256065994        0.1688006304
LA        -0.0020308078       -0.0994618956       -0.8557649383
LA        -0.5744154878        0.8216709679       -0.5125933118
LA         0.5374686067        0.8954042558       -0.7410593364
LA         0.1678879837        0.3467966386        0.1149893760
           13
Energy of minimum  2=      -41.4719797601 first found at step        3
LA        -0.4219246473        0.1564121134        1.7792773002
LA         0.3346746660        0.9738489272       -0.6768143635
LA         0.9446433773       -0.0039331869       -0.5401452028
LA        -0.7526674375        0.7682140883       -0.3333372216
LA         0.2333978240       -0.8124531336       -0.1124648517
LA        -0.8169997284       -0.3354998862        0.0226178643
LA         1.0064290990        0.8296522075        0.2206926742
LA        -0.0186432502        1.2950993913        0.3491993403
LA         0.9440335444       -0.2480983156        0.5648871839
LA        -0.1153168133       -0.4507742986        0.8979052261
LA        -0.7134238678        0.5079965931        0.7639293391
LA         0.3647515733        0.5520048433        1.0981130354
LA         0.0954023423        0.2419844241        0.0821604676
           13
Energy of minimum  3=      -41.4445964625 first found at step        5
LA        -0.9918842891        1.6775556840        0.3235301559
LA         0.8714850523       -0.1003189865       -0.5365303609
LA         0.1261519411       -0.7800528275        0.0361059405
LA         0.3333590035        0.9000237351       -0.7752049563
LA        -0.8723655380       -0.1996406884        0.1512041300
LA        -0.7413325563        0.8302448439       -0.3562497690
LA         0.9204077900       -0.1942738921        0.5904406782
LA         1.0466797835        0.8175734263        0.1001551875
LA        -0.1306087605       -0.2561305041        1.0047194706
LA         0.4351419711        0.7170273868        1.0405145854
LA        -0.6550397678        0.7161411913        0.7721425079
LA         0.0754867230        1.3824364709        0.2108185379
LA         0.0852526538        0.2987226844        0.0886292005
           13
Energy of minimum  4=      -40.0869607837 first found at step        1
LA        -1.0325466119        0.8413172454       -0.1121695911
LA         1.0100516328       -0.2942131658        0.9976900534
LA         0.7433470502       -1.0143195772        0.1983994751
LA         0.6659207738        0.8998026147       -0.7324138117
LA         0.3984700998        0.6238256087        1.1578136098
LA        -0.1405846143       -0.8304256992       -0.4553904941
LA        -0.9360926745       -0.2548210267        0.0709640719
LA        -0.6677024574        0.4691518077        0.8740858924
LA         0.7732154353       -0.1939054058       -0.5489428110
LA         1.0394545397        0.5239871722        0.2477853617
LA         0.0298513920        0.9882465680        0.1727801058
LA        -0.2384834231        0.2645558550       -0.6300839308
LA         0.1245408562       -0.1025823526        0.3519919260
           13
Energy of minimum  5=******************** first found at step        0
LA         0.0000000000        0.0000000000        0.0000000000
LA         0.0000000000        0.0000000000        0.0000000000
LA         0.0000000000        0.0000000000        0.0000000000
LA         0.0000000000        0.0000000000        0.0000000000
LA         0.0000000000        0.0000000000        0.0000000000
LA         0.0000000000        0.0000000000        0.0000000000
LA         0.0000000000        0.0000000000        0.0000000000
LA         0.0000000000        0.0000000000        0.0000000000
LA         0.0000000000        0.0000000000        0.0000000000
LA         0.0000000000        0.0000000000        0.0000000000
LA         0.0000000000        0.0000000000        0.0000000000
LA         0.0000000000        0.0000000000        0.0000000000
LA         0.0000000000        0.0000000000        0.0000000000
