          100
Energy of minimum  1=     -325.4014883241 first found at step        9
H        -0.5280920331        9.5489131359        0.2694916190
H        -1.3037737733        9.5326443817        1.8228691867
N        -1.3905863723        9.3127124713        0.7953932008
H        -2.2241853223        9.8139049881        0.4358308955
C        -1.6426466016        7.8854720844        0.8404736947
C        -0.3568759082        7.0841227512        0.6704807495
C         0.3120196696        7.2088330779       -0.6941472162
C         1.4315082185        6.1822955701       -0.8219331157
C         2.5997473446        6.4680141939        0.1127479875
N         3.4284269555        5.2848908719        0.2356076352
H         4.2261291001        5.4722652869        0.8730680139
H         2.8394658281        4.5123369186        0.6476037108
H         3.7743212342        4.9870482213       -0.6967641524
C        -2.2136733426        7.6329708947        2.2278170009
O        -2.1612839465        8.5476677554        3.0608266070
N        -2.7264762811        6.4361177430        2.5091863447
H        -2.6524927220        5.7194091245        1.8388091962
C        -3.2940726213        6.1397133245        3.8153685737
C        -4.3161615975        5.0051462366        3.7310292560
C        -5.6401442704        5.3786074743        3.0784133356
C        -5.7353445246        5.5181804149        1.7058984334
C        -6.7591864347        5.5512886843        3.8705421205
C        -6.9513873483        5.8244061352        1.1311676994
C        -7.9713213082        5.8555945583        3.2861781763
C        -8.0694138806        5.9915079609        1.9185416118
C        -2.2037335913        5.8172646926        4.8311093515
O        -1.8530331521        4.6609623397        5.0918979162
N        -1.6301781652        6.8874124318        5.3847760342
H        -1.8644482493        7.7719073270        5.0234625938
C        -0.6261050090        6.7757961151        6.4326448769
C         0.1511092224        8.0887939922        6.5836950074
C         0.9504513276        8.4837084291        5.3480364142
C         0.5769734967        9.5960587269        4.6177823382
C         2.0453820871        7.7348946472        4.9574297459
C         1.2958081947        9.9513348794        3.4948805934
C         2.7575837583        8.0981322153        3.8331235630
C         2.3841644494        9.2040502757        3.1010470426
C        -1.2317733643        6.3342739942        7.7621937049
O        -1.6267666016        7.1359295832        8.6108757186
N        -1.3431006385        5.0157777111        7.9254874427
H        -1.0398364822        4.4307899640        7.1947581648
C        -1.8783094799        4.4271848785        9.1458907803
C        -2.1503336855        2.9374062732        8.8955061510
C        -2.9626689791        2.2212658082        9.9741270712
C        -3.2021160298        0.7441309575        9.6920164359
O        -2.3081952152       -0.0602039810        9.9516507442
O        -4.2847711276        0.4018718976        9.2200361200
C        -0.9377937181        4.6433119058       10.3361404593
O         0.2662544304        4.4154096841       10.1971461995
O        -1.4221940804        5.0277732767       11.4001804537
H       -10.4815333167        1.2170424872        0.8797352118
H        -9.0955762158        2.2219729588        1.1734387927
N        -9.8104341491        1.5682022120        1.5889292705
H       -10.2848879393        2.0755372086        2.3595357593
C        -8.9567046559        0.5255858569        2.1230197839
C        -8.6542394509       -0.5306810634        1.0641315865
C        -9.8713822864       -1.3029425921        0.5766730376
C        -9.4521155572       -2.3082818286       -0.4833399440
C       -10.6660517321       -3.0775589781       -0.9780708515
N       -10.2787227340       -4.0450786833       -1.9863605384
H       -11.1199233709       -4.5615251482       -2.3135864031
H        -9.8401100434       -3.5507383208       -2.7893556082
H        -9.5965776126       -4.7153809181       -1.5778313913
C        -7.6751621841        1.2595065886        2.4833745072
O        -7.4353120639        2.3343358346        1.9190519156
N        -6.8646757241        0.7269500278        3.3959589152
H        -7.1145468934       -0.1226085791        3.8116806776
C        -5.6136289556        1.3674406936        3.7689080276
C        -5.1471970499        0.9095445337        5.1524192616
C        -5.9467092504        1.5303322168        6.2883280172
C        -6.9786244572        0.8246494364        6.8775183424
C        -5.6294172586        2.7999861108        6.7342827552
C        -7.6884576948        1.3937472753        7.9149665727
C        -6.3455994223        3.3599679466        7.7715283856
C        -7.3735793235        2.6585761472        8.3626746450
C        -4.5117768938        1.2108529982        2.7267121107
O        -3.6228135686        0.3575544845        2.8109248236
N        -4.5919562674        2.0582234090        1.6982800999
H        -5.4009564757        2.6141262316        1.6254065045
C        -3.5660522012        2.1321190642        0.6670158874
C        -4.0997566548        2.8512727414       -0.5785240329
C        -5.3020917998        2.1779513132       -1.2290762537
C        -6.5082500113        2.8497872325       -1.2898406769
C        -5.1900239481        0.9063545113       -1.7618949752
C        -7.5994241067        2.2475844432       -1.8814180351
C        -6.2872872804        0.3127070547       -2.3516438845
C        -7.4908148560        0.9809181553       -2.4124907812
C        -2.2988424952        2.8053480645        1.1930101618
O        -2.0467543108        3.9995458706        1.0118568096
N        -1.5216561033        2.0151477766        1.9316151652
H        -1.8502709940        1.1120194749        2.1402194425
C        -0.2316782819        2.4485621563        2.4490514108
C         0.1088902741        1.5728589703        3.6649865711
C         1.2871008484        1.9911554252        4.5512403984
C         1.0889422304        3.2819760728        5.3379657779
O         0.5291831634        3.2319745265        6.4346067773
O         1.5120977601        4.3323613038        4.8595116164
C         0.8519145828        2.3734901967        1.3674446635
O         0.8382154280        1.4319205348        0.5719803018
O         1.7160325999        3.2523668923        1.3316727410
          100
Energy of minimum  2=     -325.2871208400 first found at step        3
H         0.2051245241        9.1745093966        0.2441597176
H        -0.5478988989        9.2336161426        1.8083120298
N        -0.6766554161        9.0547981957        0.7774720218
H        -1.4310855305        9.6820246264        0.4414219604
C        -1.1371185570        7.6800752221        0.7924966581
C         0.0161439578        6.7041886090        0.5831628676
C         0.6363188969        6.7549365140       -0.8092759319
C         1.6095305638        5.5995042671       -1.0112066082
C         2.8615425958        5.7268831481       -0.1541201572
N         3.6078140522        4.4842209757       -0.1882164954
H         4.4641511769        4.5636618768        0.3933435950
H         2.9997295276        3.7162530452        0.2030070699
H         3.8623548533        4.2461405942       -1.1663261006
C        -1.7398836255        7.4821997191        2.1753321803
O        -1.5374811765        8.3524935958        3.0325346308
N        -2.4404659610        6.3765501245        2.4250993440
H        -2.4646022128        5.6709451993        1.7393071615
C        -3.0906383449        6.1504012635        3.7083356324
C        -4.2446843858        5.1548984341        3.5677225969
C        -5.4600946143        5.6731344512        2.8123285020
C        -5.4779684482        5.6750849146        1.4299307500
C        -6.5619955079        6.1140640428        3.5198896241
C        -6.6020948031        6.1113398756        0.7601606616
C        -7.6820364161        6.5475939332        2.8408532321
C        -7.7043596035        6.5457162266        1.4631151178
C        -2.1041189094        5.6877009667        4.7773878332
O        -1.9811598266        4.5025420160        5.1041833435
N        -1.3552187276        6.6541097583        5.3114983764
H        -1.4234081081        7.5576007240        4.9280507049
C        -0.4132802242        6.3914684620        6.3882845243
C         0.6193472011        7.5155222216        6.5015426919
C         1.5205293531        7.6447150121        5.2799595521
C         1.4788893890        8.7974995168        4.5188861142
C         2.3786253513        6.6160332130        4.9344220650
C         2.2944006620        8.9169716892        3.4125097670
C         3.1897525877        6.7453417918        3.8260550573
C         3.1491107220        7.8936705651        3.0656027892
C        -1.1165522003        6.1530706421        7.7190132192
O        -1.5245070281        7.0753242809        8.4269093762
N        -1.2908795450        4.8714609334        8.0386918294
H        -0.9516423171        4.1907827878        7.4165388190
C        -1.9380437185        4.4579699952        9.2761172694
C        -2.2144068777        2.9508326932        9.1987766358
C        -3.1532673561        2.3930690269       10.2672563468
C        -3.4085890365        0.8973064643       10.1420482680
O        -2.6441056129        0.1190006561       10.7100917673
O        -4.3730195947        0.5157813410        9.4811596533
C        -1.0988087409        4.8207332008       10.5058574016
O         0.1081238064        4.5669748261       10.5021546656
O        -1.6649576891        5.3442490275       11.4649516709
H       -10.5171249138        1.5529271672        1.1251540427
H        -9.0767745560        2.5022284249        1.3286432959
N        -9.8046347082        1.8993098535        1.7952558854
H       -10.2263693734        2.4580618545        2.5609476721
C        -8.9805249871        0.8391441579        2.3411180530
C        -8.7771228160       -0.2778498383        1.3215840755
C       -10.0510006409       -1.0093029184        0.9244463713
C        -9.7291845657       -2.0837267529       -0.1013110716
C       -11.0002613540       -2.8121713868       -0.5061281556
N       -10.7061541876       -3.8448342150       -1.4807427964
H       -11.5854594598       -4.3322754148       -1.7465163075
H       -10.2797627931       -3.4121360508       -2.3248502023
H       -10.0404169543       -4.5292424475       -1.0685517078
C        -7.6498013409        1.5206329339        2.6168655624
O        -7.3866523443        2.5660450157        2.0087890174
N        -6.8219044935        0.9724227984        3.5043020807
H        -7.0903376648        0.1450203388        3.9519480331
C        -5.5272328330        1.5621507174        3.8059595472
C        -5.0314068010        1.1267338804        5.1874362380
C        -5.7846932334        1.7936510437        6.3292553556
C        -6.8185864953        1.1281643562        6.9605586301
C        -5.4289365996        3.0671847912        6.7330497285
C        -7.4937473115        1.7422202786        7.9955320364
C        -6.1108433368        3.6723408047        7.7681386789
C        -7.1417408770        3.0117905190        8.3999294413
C        -4.4779010867        1.3149055577        2.7269487317
O        -3.6076299426        0.4431989953        2.8200089555
N        -4.5844841361        2.1033759112        1.6547913641
H        -5.3751891495        2.6858610661        1.5895403483
C        -3.6056415036        2.0861443104        0.5770044280
C        -4.1689603458        2.7541262195       -0.6835906355
C        -5.4218162286        2.0933045608       -1.2450953934
C        -6.6066612827        2.8036396582       -1.2841598832
C        -5.3755246575        0.7962556723       -1.7233406266
C        -7.7418559920        2.2151818754       -1.8020823663
C        -6.5165395682        0.2165741156       -2.2393294538
C        -7.6984743463        0.9237398380       -2.2802347795
C        -2.3080736372        2.7581843347        1.0207858902
O        -2.0697245091        3.9516920653        0.8182490905
N        -1.4909407868        1.9718007761        1.7172376734
H        -1.7981905503        1.0659152769        1.9472615776
C        -0.1825476327        2.4159896799        2.1714933586
C        -0.0279720573        2.0254105621        3.6443270745
C         1.1145451168        2.7051042305        4.3949981003
C         1.1887608834        2.3156647190        5.8650762768
O         1.8555830303        1.3316915248        6.1802657053
O         0.5826340442        2.9971946996        6.6936862478
C         0.9149726089        1.8018993230        1.3009086715
O         0.8315957973        0.6118297251        0.9911651431
O         1.8498033676        2.5167952127        0.9328286917
          100
Energy of minimum  3=     -322.6763805002 first found at step        7
H         0.2883335437        9.0336944290        0.2576218102
H        -0.3034034095        9.3842777275        1.8511980897
N        -0.5511892728        9.1189241742        0.8612852953
H        -1.2240430812        9.8232822678        0.5054549986
C        -1.2180256412        7.8484851218        1.0734128291
C        -0.2774805355        6.6764174828        0.7939785547
C         0.1127201198        6.5914489084       -0.6798184875
C         0.9547381071        5.3686245662       -1.0292771139
C         2.3293826274        5.3780205762       -0.3745470933
N         3.1245863437        4.2698362994       -0.8704374879
H         4.0425326619        4.2414967479       -0.3858682472
H         2.6231720014        3.3576648807       -0.7109135606
H         3.2724619061        4.3788490906       -1.8926821917
C        -1.6656946753        7.8800977286        2.5292300146
O        -1.2645332807        8.8073165313        3.2446791485
N        -2.4380113765        6.9011819967        2.9971111836
H        -2.5025115147        6.0654168694        2.4861875933
C        -3.1119903156        6.9823054081        4.2867781173
C        -4.3760667383        6.1074469745        4.2671887581
C        -5.3336300392        6.3766587410        3.1139241888
C        -5.3057190976        5.5589865458        1.9990473531
C        -6.2291376190        7.4269845921        3.1829507986
C        -6.1737806555        5.7965288632        0.9539038999
C        -7.0942726249        7.6550972403        2.1322257136
C        -7.0678664687        6.8426846065        1.0190785252
C        -2.1933276205        6.5850355219        5.4448797506
O        -2.3737250234        5.5611810355        6.1152460167
N        -1.1697593820        7.4037730629        5.7002933692
H        -1.0397257669        8.1810333036        5.1118658741
C        -0.2362069603        7.1613544630        6.7918402838
C         1.0939761619        7.8790936363        6.5393253947
C         1.9140934380        7.2735681076        5.4084503959
C         1.9694875370        7.9050017752        4.1805303757
C         2.6129416822        6.0985402183        5.6167193347
C         2.7252494511        7.3576313057        3.1644476765
C         3.3650012367        5.5589908582        4.5934927296
C         3.4218279019        6.1864397412        3.3683731896
C        -0.8170394539        7.5210573667        8.1572904578
O        -0.5297699293        8.5594525603        8.7553575392
N        -1.6918682968        6.6411567168        8.6464227049
H        -1.9366400088        5.8755620319        8.0801441975
C        -2.2939441565        6.7977095176        9.9643979054
C        -3.4401205557        5.7872613780       10.1039750013
C        -4.3560716913        5.9887960936       11.3111952003
C        -5.5030618803        4.9906274582       11.3933534287
O        -5.2854524087        3.8769672859       11.8684870983
O        -6.6110282074        5.3324091683       10.9831606697
C        -1.2587090569        6.6446425630       11.0842316925
O        -0.4732384922        5.6946826142       11.0426197119
O        -1.2558632045        7.4715797367       11.9953239277
H       -10.5100340789        1.6747141787        1.6515658462
H        -9.0266893024        2.5695867969        1.5234652927
N        -9.6980770538        2.0687915571        2.1634765896
H        -9.9872013128        2.7420847039        2.8978832707
C        -8.8369150506        1.0485148886        2.7280025978
C        -8.8389668631       -0.2109028148        1.8663857053
C       -10.1858463375       -0.9141427448        1.7818697975
C       -10.0724707288       -2.1388632375        0.8889387496
C       -11.4179327085       -2.8397433424        0.7960209117
N       -11.3221190329       -4.0144459044       -0.0487719713
H       -12.2499891300       -4.4810184111       -0.1015142534
H       -11.0210810621       -3.7304887505       -1.0028656849
H       -10.6244955398       -4.6728164201        0.3529622940
C        -7.4543453353        1.6813821216        2.7019823522
O        -7.2582413421        2.6403471002        1.9455735478
N        -6.5086644602        1.1798374201        3.4934451995
H        -6.7268647375        0.4068978165        4.0519499979
C        -5.1618917752        1.7309575881        3.5312548415
C        -4.4593320512        1.3442707611        4.8393981981
C        -5.1463803431        1.8670744250        6.0937951217
C        -5.9364844119        1.0201010151        6.8483514985
C        -4.9819790571        3.1848129450        6.4755298526
C        -6.5648551527        1.4981836440        7.9797346528
C        -5.6155278520        3.6537321952        7.6073939551
C        -6.4069192821        2.8130612578        8.3589626148
C        -4.3479751039        1.2886001165        2.3170861842
O        -3.5544613449        0.3431401607        2.3630217853
N        -4.5646651835        1.9727616164        1.1903991871
H        -5.2701552947        2.6585223256        1.2047387078
C        -3.8626658671        1.6852930680       -0.0567064140
C        -4.6215600950        2.3008070394       -1.2414369686
C        -6.0277411028        1.7559247688       -1.4584873010
C        -7.1081964238        2.6146618242       -1.3856542928
C        -6.2244470132        0.4175311058       -1.7474010147
C        -8.3821970596        2.1330067370       -1.6058560400
C        -7.5025602459       -0.0540571847       -1.9667533204
C        -8.5808165195        0.8011834203       -1.8976972200
C        -2.3982899955        2.1323924214       -0.0510535331
O        -1.9787127864        3.0478167135       -0.7621620877
N        -1.5839654640        1.4773642303        0.7770845500
H        -1.9449071676        0.7183062296        1.2870543796
C        -0.1797616432        1.8401200529        0.9096614355
C         0.3210690392        1.5505826843        2.3321237112
C        -0.5120530224        2.1465471326        3.4774667476
C        -0.7821534569        3.6437320163        3.3856547257
O         0.0759546835        4.4338036845        3.7733838022
O        -1.8581802065        4.0194814156        2.9153049016
C         0.7238958900        1.1807694700       -0.1301270867
O         0.4534868716        0.0446781561       -0.5228815236
O         1.7058463295        1.8110675063       -0.5298147821
          100
Energy of minimum  4=     -322.1968149160 first found at step        2
H         1.1905112871        8.2805306975        0.3835609821
H         0.7225911847        8.3105538917        2.0573130284
N         0.4006941377        8.2521629684        1.0555905178
H        -0.2774167542        9.0211701508        0.8988293009
C        -0.2856281134        6.9745876310        1.0599534189
C         0.6772116572        5.8340518227        0.7438423831
C         1.2583995072        5.8821709469       -0.6619372978
C         2.2250972846        4.7271746356       -0.8598480271
C         2.8004798467        4.7546452934       -2.2661116246
N         3.7058374116        3.6385866044       -2.4584532938
H         4.0800498702        3.6503891569       -3.4281633678
H         4.4884426840        3.7087978819       -1.7775411668
H         3.1863612596        2.7520312345       -2.2920023900
C        -0.7951462317        6.8383284429        2.4863205411
O        -0.2503516253        7.5129356576        3.3704405481
N        -1.7989765702        6.0005902398        2.7379584406
H        -2.1223579584        5.4246790494        2.0086254370
C        -2.3738337239        5.8691653979        4.0695871735
C        -3.8083995442        5.3409530482        3.9947295887
C        -4.8285660119        6.3098201541        3.4142671547
C        -4.9806587370        6.4293459951        2.0453704857
C        -5.6278604969        7.0468313594        4.2670200928
C        -5.9388883322        7.2797110044        1.5342858849
C        -6.5838606338        7.8944089216        3.7461971595
C        -6.7416045267        8.0108123297        2.3822529339
C        -1.5204370379        4.9925610385        4.9828112415
O        -1.8045354335        3.8164271860        5.2330046774
N        -0.4225041805        5.5742898066        5.4692331163
H        -0.1971984507        6.4782115998        5.1522627827
C         0.4571848035        4.8913758809        6.4052886533
C         1.8395121921        5.5481183333        6.4408930187
C         2.6099681204        5.4339218786        5.1311367517
C         2.9578074141        6.5791093846        4.4401328696
C         2.9695922316        4.1917971521        4.6391835397
C         3.6664445232        6.4778695223        3.2604723910
C         3.6757689015        4.1011903436        3.4574178468
C         4.0259172522        5.2418483252        2.7686206359
C        -0.1508773195        4.8065553709        7.8003669935
O        -0.1026987298        5.7413990647        8.6014999235
N        -0.7716116872        3.6593518382        8.0731069845
H        -0.7746828009        2.9588689035        7.3839518081
C        -1.4118685648        3.4062458676        9.3565232230
C        -2.2568996665        2.1315964879        9.2337051895
C        -3.2380785243        1.8718572345       10.3755182995
C        -4.0567856363        0.5994408191       10.2051977337
O        -3.6021350897       -0.4570085315       10.6411872143
O        -5.1477028652        0.6694016979        9.6417381363
C        -0.3882189233        3.3040033528       10.4921683957
O         0.6222732111        2.6165845090       10.3265946402
O        -0.6182526614        3.9055139447       11.5408592291
H       -11.1740373052        4.2444839333        1.9031221505
H        -9.4912664898        4.6588817353        2.0205182507
N       -10.3421797219        4.2903406173        2.5216459717
H       -10.5021672329        4.8961201938        3.3485569208
C        -9.8760367324        2.9827349207        2.9387150753
C       -10.1272759749        1.9387975803        1.8544711326
C       -11.5965556452        1.6912638116        1.5454794709
C       -11.7230037481        0.6492197012        0.4462566767
C       -13.1892198586        0.4041924266        0.1295414238
N       -13.3242009848       -0.5932298544       -0.9143420706
H       -14.3320214623       -0.7482506014       -1.1184966904
H       -12.8424201533       -0.2611779074       -1.7740993420
H       -12.8926189439       -1.4849321600       -0.5979151701
C        -8.3787155502        3.1727006591        3.1214564644
O        -7.8308122457        4.1220168848        2.5465222415
N        -7.7154270907        2.3159957992        3.8956905703
H        -8.2081096025        1.5858881126        4.3214376960
C        -6.2808831606        2.4294204509        4.1053141512
C        -5.8581804764        1.7419314346        5.4066242601
C        -6.2522136110        2.5238065056        6.6513873588
C        -7.4162590771        2.2117219462        7.3281992323
C        -5.4391245490        3.5468226515        7.1027517732
C        -7.7625907504        2.9277998112        8.4557771150
C        -5.7947163913        4.2568080130        8.2306154973
C        -6.9544776792        3.9486707438        8.9075503795
C        -5.4479938161        1.9512855568        2.9200976290
O        -4.9010366361        0.8443236169        2.8850368387
N        -5.3658147953        2.8169489508        1.9066477895
H        -5.9288410420        3.6233768841        1.9454504942
C        -4.5204544236        2.5785939384        0.7443947683
C        -4.9360256511        3.4808892146       -0.4248418462
C        -6.3737395503        3.2943085138       -0.8933318556
C        -7.2647695362        4.3455707549       -0.7885027235
C        -6.7848884057        2.0881780449       -1.4312371464
C        -8.5644850064        4.1880485084       -1.2234329080
C        -8.0871314458        1.9407630501       -1.8631989415
C        -8.9765411456        2.9882867093       -1.7611878900
C        -3.0492685011        2.7859289367        1.1016653922
O        -2.4454209349        3.8381864172        0.8749508414
N        -2.4844897008        1.7702625076        1.7508767755
H        -3.0468656006        0.9998023145        1.9903884706
C        -1.0808150365        1.7845661949        2.1315276759
C        -0.9257579674        0.9991670556        3.4371197378
C         0.3982746617        1.2011256426        4.1693229687
C         0.4262905206        0.5789546427        5.5580407653
O         0.7530716307       -0.6011245053        5.6715783668
O         0.1235821932        1.2803388914        6.5252882260
C        -0.2015414916        1.2291205801        1.0106210243
O        -0.5631940596        0.2079021104        0.4217034906
O         0.8405622666        1.8211304845        0.7347840047
          100
Energy of minimum  5=     -319.9785243782 first found at step       11
H        -2.0148769836        8.4637036379       -0.9612064138
H        -2.5636786891        8.9997171515        0.5968268023
N        -2.7521953027        8.3812512092       -0.2359365369
H        -3.6935533778        8.6223328464       -0.5982840918
C        -2.7737574454        7.0754884818        0.3933174107
C        -1.4021288808        6.4088543233        0.3235338148
C        -1.0172197466        5.9694711633       -1.0862677265
C         0.3221326196        5.2396834881       -1.1214054378
C         1.4940737169        6.1708306562       -0.8407580853
N         2.7453868959        5.4386552315       -0.8802468838
H         3.5336722486        6.0884768892       -0.6863844104
H         2.7266652927        4.6918979991       -0.1560010382
H         2.8685044850        5.0095770221       -1.8192324772
C        -3.1642305737        7.3468456071        1.8384382451
O        -3.1130656237        8.5117271624        2.2531361029
N        -3.5178315674        6.3248218755        2.6143497810
H        -3.3333932502        5.4108925192        2.3035487512
C        -4.0104898876        6.5156332501        3.9705840475
C        -4.9837733319        5.3873662641        4.3450378677
C        -6.2482940324        5.3346083684        3.4981595665
C        -7.3609561639        6.0619941564        3.8764928115
C        -6.2884777953        4.5458975914        2.3633029438
C        -8.5125175601        5.9928271108        3.1193432453
C        -7.4445379828        4.4835614710        1.6132617702
C        -8.5564434195        5.2044873258        1.9899782712
C        -2.8233761056        6.5680193948        4.9289796300
O        -2.5608199668        5.6410147190        5.6993173712
N        -2.0866503219        7.6819475191        4.8566082915
H        -2.3939488275        8.3854282755        4.2418723403
C        -0.8397898539        7.8678146545        5.5920255189
C        -0.2252372281        9.2350043588        5.2789750692
C         0.2073846657        9.4073379318        3.8286183983
C        -0.4330879447       10.3356084095        3.0297171880
C         1.2412137517        8.6458528638        3.3146214847
C        -0.0393247880       10.4971434589        1.7172114561
C         1.6284157146        8.8168013498        2.0016218743
C         0.9897488418        9.7396447224        1.2022118446
C        -0.9280547541        7.6688310879        7.1015680923
O        -1.4536454333        8.4943021564        7.8506078757
N        -0.4131598619        6.5169056582        7.5346522945
H        -0.0598670746        5.8916970852        6.8639303143
C        -0.4051235682        6.1400483075        8.9426671353
C         0.1359037282        4.7104828928        9.0497823931
C        -0.1950469247        3.9616459107       10.3409193810
C         0.3994648848        2.5595752491       10.4241662206
O         1.1338426493        2.2930354767       11.3733222413
O         0.1367578558        1.7393326728        9.5422464424
C         0.4098519804        7.1080103094        9.8073873321
O         1.5324793825        7.4480046936        9.4253731721
O        -0.0792430038        7.4978250394       10.8670569558
H        -8.0769666735       -0.6278841036       -2.1416517533
H        -7.3522325339        0.6790256507       -1.2563326411
N        -8.0769994080       -0.0862855656       -1.2566021142
H        -8.9962976429        0.3562307900       -1.0684275088
C        -7.6533269853       -0.8716260229       -0.1143022108
C        -6.6121074735       -1.9112181519       -0.5197039465
C        -7.1197387819       -2.9688314211       -1.4890522089
C        -5.9968827810       -3.9339171446       -1.8327034839
C        -6.4982533000       -4.9879641551       -2.8062521297
N        -5.4375665399       -5.9194803991       -3.1379045715
H        -5.7971029419       -6.6325332842       -3.8040136225
H        -4.6477515249       -5.4027578076       -3.5746469400
H        -5.1069208665       -6.3892784389       -2.2710216943
C        -7.0124970464        0.1520504528        0.8092095165
O        -6.6051273807        1.2130890146        0.3192737100
N        -6.9201476462       -0.1251018452        2.1084540597
H        -7.2669068833       -0.9801905834        2.4334010318
C        -6.2985443970        0.7991789002        3.0439947126
C        -6.7910809641        0.5513393214        4.4719798358