           16
Energy of minimum  1=     -301.3378458213 first found at step        1
LA         0.0300632244       -0.4168399083        2.3423052460
LA         1.7891554057       -1.4101144833        0.4510459358
LA        -0.3291070370       -2.0429146921       -1.1744072719
LA        -1.9950016534       -1.0291408388        0.5947966403
LA         2.0765694606        0.9684987600       -0.6410221090
LA        -0.0786713822        0.4861152280       -2.2694619731
LA         0.2845173242        1.9531429536        1.2236154894
LA        -1.7775253423        1.4912529809       -0.5268719575
LA        -1.7892211269       -1.5748591935        0.9677106025
LA         0.5656160221       -1.6605324668        0.0433836630
LA         1.1097592554       -1.3754507483        0.2507180543
LA         3.3770519108       -2.3965284205        0.7331229255
LA        -0.5550792570        1.8742738577        1.2309421624
LA        -3.5742862930       -2.0520892324        0.9959083136
LA         0.9716099546        3.2710091138       -5.1164266309
LA        -0.1824322980       -0.1777886586        0.6460800982
           16
Energy of minimum  2=     -291.1427051824 first found at step       51
LA         0.7527668127       -0.9998458794        2.1230747356
LA         1.7244058962       -1.5856514898       -0.3448562606
LA        -0.6570746881       -1.4642680734       -1.7185524503
LA        -1.6535209731       -1.2779783462        0.8028907831
LA         1.7465179463        1.0689957285       -0.9798302949
LA        -0.8269519193        1.2317004227       -1.9269652905
LA         0.7236699850        1.5609406238        1.5432848545
LA        -1.8098130598        1.4661070138        0.5009539231
LA        -1.8445220780       -1.9243909780        1.0367159953
LA        -1.3240837657       -3.3306172256       -0.8138699832
LA         2.8217200880       -0.1224278997       -0.4359532475
LA         3.6387506408       -1.9449804501       -0.0646152330
LA        -0.4380387767        1.4215012409        1.5211661877
LA        -3.8792704309       -2.2514318801        1.4379193733
LA         2.6317066208        4.9404198104       -1.4259182364
LA        -0.3672417288       -0.6304434453        0.5679346381
           16
Energy of minimum  3=     -282.4865752344 first found at step       19
LA         0.5879001501       -0.9744740575        2.1356526211
LA         2.3914190442       -1.4236976826        0.1138472246
LA        -1.2440729636       -1.5439866046       -1.9361905781
LA        -1.7079937328       -1.2415730964        0.6715419513
LA         1.8095975410        0.9830323708       -0.9076348935
LA        -0.6925344974        1.0963333423       -1.9807830336
LA         0.6576293433        1.5845073940        1.5437177476
LA        -1.8019448848        1.5198583340        0.3598489607
LA        -1.8645235151       -1.7723302620        0.8120468933
LA        -0.0991605196       -3.2276342506       -0.3740788611
LA         0.4880642747       -2.0548996700       -0.2699457847
LA         3.6422394200       -1.9567162547       -0.2393311174
LA        -0.4200391426        1.4635555913        1.3131448675
LA        -4.0672599794       -2.1659161992        0.9571770038
LA         2.8461013611        4.7303911866       -1.8668208682
LA        -0.3589389585       -0.5397499166        0.6065731079
           16
Energy of minimum  4=******************** first found at step        0
LA         0.0000000000        0.0000000000        0.0000000000
LA         0.0000000000        0.0000000000        0.0000000000
LA         0.0000000000        0.0000000000        0.0000000000
LA         0.0000000000        0.0000000000        0.0000000000
LA         0.0000000000        0.0000000000        0.0000000000
LA         0.0000000000        0.0000000000        0.0000000000
LA         0.0000000000        0.0000000000        0.0000000000
LA         0.0000000000        0.0000000000        0.0000000000
LA         0.0000000000        0.0000000000        0.0000000000
LA         0.0000000000        0.0000000000        0.0000000000
LA         0.0000000000        0.0000000000        0.0000000000
LA         0.0000000000        0.0000000000        0.0000000000
LA         0.0000000000        0.0000000000        0.0000000000
LA         0.0000000000        0.0000000000        0.0000000000
LA         0.0000000000        0.0000000000        0.0000000000
LA         0.0000000000        0.0000000000        0.0000000000
           16
Energy of minimum  5=******************** first found at step        0
LA         0.0000000000        0.0000000000        0.0000000000
LA         0.0000000000        0.0000000000        0.0000000000
LA         0.0000000000        0.0000000000        0.0000000000
LA         0.0000000000        0.0000000000        0.0000000000
LA         0.0000000000        0.0000000000        0.0000000000
LA         0.0000000000        0.0000000000        0.0000000000
LA         0.0000000000        0.0000000000        0.0000000000
LA         0.0000000000        0.0000000000        0.0000000000
LA         0.0000000000        0.0000000000        0.0000000000
LA         0.0000000000        0.0000000000        0.0000000000
LA         0.0000000000        0.0000000000        0.0000000000
LA         0.0000000000        0.0000000000        0.0000000000
LA         0.0000000000        0.0000000000        0.0000000000
LA         0.0000000000        0.0000000000        0.0000000000
LA         0.0000000000        0.0000000000        0.0000000000
LA         0.0000000000        0.0000000000        0.0000000000
