    24
Energy of minimum  1=     -301.3378458213 first found at step        1
  O         0.0300632244       -0.4168399083        2.3423052460
  H         0.1561676979        0.4916694050        2.0685530200
  H         0.0822584259       -0.3890609933        3.2976773121
  O         1.7891554057       -1.4101144833        0.4510459358
  H         1.1931321732       -1.8710850850       -0.1392880397
  H         1.2839973299       -1.2880400283        1.2548773471
  O        -0.3291070370       -2.0429146921       -1.1744072719
  H        -0.6384214389       -2.8655475824       -1.5536585351
  H        -1.0261349658       -1.7783451916       -0.5740849936
  O        -1.9950016534       -1.0291408388        0.5947966403
  H        -1.4673737176       -0.9306127259        1.3873449128
  H        -2.1825619362       -0.1321430018        0.3183046645
  O         2.0765694606        0.9684987600       -0.6410221090
  H         2.1165948729        0.1034930861       -0.2331067471
  H         2.9902378575        1.1936480588       -0.8163778774
  O        -0.0786713822        0.4861152280       -2.2694619731
  H         0.7808487406        0.7508319319       -1.9417700184
  H        -0.0956211076       -0.4644379507       -2.1581374333
  O         0.2845173242        1.9531429536        1.2236154894
  H         0.9941957480        1.8846226615        0.5849502435
  H        -0.5066139743        2.0508618110        0.6937154183
  O        -1.7775253423        1.4912529809       -0.5268719575
  H        -1.2466269554        1.1831824651       -1.2613590248
  H        -2.4340788392        2.0609531734       -0.9276349653
    24
Energy of minimum  2=     -291.1427051824 first found at step       51
  O         0.7527668127       -0.9998458794        2.1230747356
  H         0.8018869942       -0.0469723533        2.0465826241
  H         1.0217045369       -1.1825147790        3.0233726671
  O         1.7244058962       -1.5856514898       -0.3448562606
  H         1.4387476952       -1.5372591642        0.5674426854
  H         2.3764012003       -2.2863826452       -0.3553330486
  O        -0.6570746881       -1.4642680734       -1.7185524503
  H         0.2285628878       -1.6641598781       -1.4153674531
  H        -1.2108420544       -1.6033081136       -0.9502807775
  O        -1.6535209731       -1.2779783462        0.8028907831
  H        -0.9153679296       -1.3527012355        1.4076869191
  H        -1.9063693875       -0.3557665018        0.8456082877
  O         1.7465179463        1.0689957285       -0.9798302949
  H         1.8597123210        0.1250023493       -0.8689460064
  H         2.5616273890        1.3622464044       -1.3870555759
  O        -0.8269519193        1.2317004227       -1.9269652905
  H         0.1136443822        1.3646092925       -1.8092978697
  H        -0.9121637412        0.3051022188       -2.1514346778
  O         0.7236699850        1.5609406238        1.5432848545
  H         1.1702993410        1.6524229563        0.7016287531
  H        -0.1928184375        1.7596640543        1.3514782814
  O        -1.8098130598        1.4661070138        0.5009539231
  H        -1.5685746831        1.4598678715       -0.4253273034
  H        -2.5752012045        2.0391738094        0.5457560181
    24
Energy of minimum  3=     -282.4865752344 first found at step       19
  O         0.5879001501       -0.9744740575        2.1356526211
  H         0.6591510633       -0.0237484466        2.0503536641
  H         0.6499205228       -1.1362828285        3.0770362766
  O         2.3914190442       -1.4236976826        0.1138472246
  H         1.6996515149       -1.5229021870        0.7679480911
  H         3.2017324694       -1.5953529861        0.5935954935
  O        -1.2440729636       -1.5439866046       -1.9361905781
  H        -2.0377916633       -1.9423370732       -2.2933450572
  H        -1.3573075361       -1.5927585656       -0.9869640407
  O        -1.7079937328       -1.2415730964        0.6715419513
  H        -0.9364388715       -1.3539631218        1.2267926786
  H        -1.9219916124       -0.3113781842        0.7434733397
  O         1.8095975410        0.9830323708       -0.9076348935
  H         2.0342103500        0.0852457612       -0.6631761410
  H         2.5846592475        1.3080727054       -1.3657396018
  O        -0.6925344974        1.0963333423       -1.9807830336
  H         0.2448551868        1.1019921932       -1.7871329644
  H        -0.8834897506        0.1883843074       -2.2161475024
  O         0.6576293433        1.5845073940        1.5437177476
  H         1.1559477459        1.6498377445        0.7290751838
  H        -0.2404127843        1.8019866597        1.2938079682
  O        -1.8019448848        1.5198583340        0.3598489607
  H        -1.4951459989        1.4608373967       -0.5449287825
  H        -2.5419435017        2.1259084350        0.3232823916
    24
Energy of minimum  4=******************** first found at step        0
  O         0.0000000000        0.0000000000        0.0000000000
  H         0.7569503188        0.0000000000       -0.5858822465
  H        -0.7569503188        0.0000000000       -0.5858822465
  O         0.0000000000        0.0000000000        0.0000000000
  H         0.7569503188        0.0000000000       -0.5858822465
  H        -0.7569503188        0.0000000000       -0.5858822465
  O         0.0000000000        0.0000000000        0.0000000000
  H         0.7569503188        0.0000000000       -0.5858822465
  H        -0.7569503188        0.0000000000       -0.5858822465
  O         0.0000000000        0.0000000000        0.0000000000
  H         0.7569503188        0.0000000000       -0.5858822465
  H        -0.7569503188        0.0000000000       -0.5858822465
  O         0.0000000000        0.0000000000        0.0000000000
  H         0.7569503188        0.0000000000       -0.5858822465
  H        -0.7569503188        0.0000000000       -0.5858822465
  O         0.0000000000        0.0000000000        0.0000000000
  H         0.7569503188        0.0000000000       -0.5858822465
  H        -0.7569503188        0.0000000000       -0.5858822465
  O         0.0000000000        0.0000000000        0.0000000000
  H         0.7569503188        0.0000000000       -0.5858822465
  H        -0.7569503188        0.0000000000       -0.5858822465
  O         0.0000000000        0.0000000000        0.0000000000
  H         0.7569503188        0.0000000000       -0.5858822465
  H        -0.7569503188        0.0000000000       -0.5858822465
    24
Energy of minimum  5=******************** first found at step        0
  O         0.0000000000        0.0000000000        0.0000000000
  H         0.7569503188        0.0000000000       -0.5858822465
  H        -0.7569503188        0.0000000000       -0.5858822465
  O         0.0000000000        0.0000000000        0.0000000000
  H         0.7569503188        0.0000000000       -0.5858822465
  H        -0.7569503188        0.0000000000       -0.5858822465
  O         0.0000000000        0.0000000000        0.0000000000
  H         0.7569503188        0.0000000000       -0.5858822465
  H        -0.7569503188        0.0000000000       -0.5858822465
  O         0.0000000000        0.0000000000        0.0000000000
  H         0.7569503188        0.0000000000       -0.5858822465
  H        -0.7569503188        0.0000000000       -0.5858822465
  O         0.0000000000        0.0000000000        0.0000000000
  H         0.7569503188        0.0000000000       -0.5858822465
  H        -0.7569503188        0.0000000000       -0.5858822465
  O         0.0000000000        0.0000000000        0.0000000000
  H         0.7569503188        0.0000000000       -0.5858822465
  H        -0.7569503188        0.0000000000       -0.5858822465
  O         0.0000000000        0.0000000000        0.0000000000
  H         0.7569503188        0.0000000000       -0.5858822465
  H        -0.7569503188        0.0000000000       -0.5858822465
  O         0.0000000000        0.0000000000        0.0000000000
  H         0.7569503188        0.0000000000       -0.5858822465
  H        -0.7569503188        0.0000000000       -0.5858822465
